<?xml version="1.0"?>
<VTKFile type="UnstructuredGrid"  version="0.1"  >
<UnstructuredGrid>
<Piece  NumberOfPoints="135" NumberOfCells="208">
<Points>
<DataArray  type="Float64"  NumberOfComponents="3"  format="ascii">-0.05 0 0  -0.025 0 0  0 0 0  0.02500000000000001 0 0  0.05 0 0  -0.05 0.03846153846153846 0  -0.025 0.03846153846153846 0  0 0.03846153846153846 0  0.02500000000000001 0.03846153846153846 0  0.05 0.03846153846153846 0  -0.05 0.07692307692307693 0  -0.025 0.07692307692307693 0  0 0.07692307692307693 0  0.02500000000000001 0.07692307692307693 0  0.05 0.07692307692307693 0  -0.05 0.1153846153846154 0  -0.025 0.1153846153846154 0  0 0.1153846153846154 0  0.02500000000000001 0.1153846153846154 0  0.05 0.1153846153846154 0  -0.05 0.1538461538461539 0  -0.025 0.1538461538461539 0  0 0.1538461538461539 0  0.02500000000000001 0.1538461538461539 0  0.05 0.1538461538461539 0  -0.05 0.1923076923076923 0  -0.025 0.1923076923076923 0  0 0.1923076923076923 0  0.02500000000000001 0.1923076923076923 0  0.05 0.1923076923076923 0  -0.05 0.2307692307692308 0  -0.025 0.2307692307692308 0  0 0.2307692307692308 0  0.02500000000000001 0.2307692307692308 0  0.05 0.2307692307692308 0  -0.05 0.2692307692307692 0  -0.025 0.2692307692307692 0  0 0.2692307692307692 0  0.02500000000000001 0.2692307692307692 0  0.05 0.2692307692307692 0  -0.05 0.3076923076923077 0  -0.025 0.3076923076923077 0  0 0.3076923076923077 0  0.02500000000000001 0.3076923076923077 0  0.05 0.3076923076923077 0  -0.05 0.3461538461538461 0  -0.025 0.3461538461538461 0  0 0.3461538461538461 0  0.02500000000000001 0.3461538461538461 0  0.05 0.3461538461538461 0  -0.05 0.3846153846153846 0  -0.025 0.3846153846153846 0  0 0.3846153846153846 0  0.02500000000000001 0.3846153846153846 0  0.05 0.3846153846153846 0  -0.05 0.4230769230769231 0  -0.025 0.4230769230769231 0  0 0.4230769230769231 0  0.02500000000000001 0.4230769230769231 0  0.05 0.4230769230769231 0  -0.05 0.4615384615384616 0  -0.025 0.4615384615384616 0  0 0.4615384615384616 0  0.02500000000000001 0.4615384615384616 0  0.05 0.4615384615384616 0  -0.05 0.5 0  -0.025 0.5 0  0 0.5 0  0.02500000000000001 0.5 0  0.05 0.5 0  -0.05 0.5384615384615384 0  -0.025 0.5384615384615384 0  0 0.5384615384615384 0  0.02500000000000001 0.5384615384615384 0  0.05 0.5384615384615384 0  -0.05 0.5769230769230769 0  -0.025 0.5769230769230769 0  0 0.5769230769230769 0  0.02500000000000001 0.5769230769230769 0  0.05 0.5769230769230769 0  -0.05 0.6153846153846154 0  -0.025 0.6153846153846154 0  0 0.6153846153846154 0  0.02500000000000001 0.6153846153846154 0  0.05 0.6153846153846154 0  -0.05 0.6538461538461539 0  -0.025 0.6538461538461539 0  0 0.6538461538461539 0  0.02500000000000001 0.6538461538461539 0  0.05 0.6538461538461539 0  -0.05 0.6923076923076923 0  -0.025 0.6923076923076923 0  0 0.6923076923076923 0  0.02500000000000001 0.6923076923076923 0  0.05 0.6923076923076923 0  -0.05 0.7307692307692307 0  -0.025 0.7307692307692307 0  0 0.7307692307692307 0  0.02500000000000001 0.7307692307692307 0  0.05 0.7307692307692307 0  -0.05 0.7692307692307693 0  -0.025 0.7692307692307693 0  0 0.7692307692307693 0  0.02500000000000001 0.7692307692307693 0  0.05 0.7692307692307693 0  -0.05 0.8076923076923077 0  -0.025 0.8076923076923077 0  0 0.8076923076923077 0  0.02500000000000001 0.8076923076923077 0  0.05 0.8076923076923077 0  -0.05 0.8461538461538461 0  -0.025 0.8461538461538461 0  0 0.8461538461538461 0  0.02500000000000001 0.8461538461538461 0  0.05 0.8461538461538461 0  -0.05 0.8846153846153846 0  -0.025 0.8846153846153846 0  0 0.8846153846153846 0  0.02500000000000001 0.8846153846153846 0  0.05 0.8846153846153846 0  -0.05 0.9230769230769231 0  -0.025 0.9230769230769231 0  0 0.9230769230769231 0  0.02500000000000001 0.9230769230769231 0  0.05 0.9230769230769231 0  -0.05 0.9615384615384616 0  -0.025 0.9615384615384616 0  0 0.9615384615384616 0  0.02500000000000001 0.9615384615384616 0  0.05 0.9615384615384616 0  -0.05 1 0  -0.025 1 0  0 1 0  0.02500000000000001 1 0  0.05 1 0  </DataArray>
</Points>
<Cells>
<DataArray  type="UInt32"  Name="connectivity"  format="ascii">0 1 6  0 5 6  1 2 7  1 6 7  2 3 8  2 7 8  3 4 9  3 8 9  5 6 11  5 10 11  6 7 12  6 11 12  7 8 13  7 12 13  8 9 14  8 13 14  10 11 16  10 15 16  11 12 17  11 16 17  12 13 18  12 17 18  13 14 19  13 18 19  15 16 21  15 20 21  16 17 22  16 21 22  17 18 23  17 22 23  18 19 24  18 23 24  20 21 26  20 25 26  21 22 27  21 26 27  22 23 28  22 27 28  23 24 29  23 28 29  25 26 31  25 30 31  26 27 32  26 31 32  27 28 33  27 32 33  28 29 34  28 33 34  30 31 36  30 35 36  31 32 37  31 36 37  32 33 38  32 37 38  33 34 39  33 38 39  35 36 41  35 40 41  36 37 42  36 41 42  37 38 43  37 42 43  38 39 44  38 43 44  40 41 46  40 45 46  41 42 47  41 46 47  42 43 48  42 47 48  43 44 49  43 48 49  45 46 51  45 50 51  46 47 52  46 51 52  47 48 53  47 52 53  48 49 54  48 53 54  50 51 56  50 55 56  51 52 57  51 56 57  52 53 58  52 57 58  53 54 59  53 58 59  55 56 61  55 60 61  56 57 62  56 61 62  57 58 63  57 62 63  58 59 64  58 63 64  60 61 66  60 65 66  61 62 67  61 66 67  62 63 68  62 67 68  63 64 69  63 68 69  65 66 71  65 70 71  66 67 72  66 71 72  67 68 73  67 72 73  68 69 74  68 73 74  70 71 76  70 75 76  71 72 77  71 76 77  72 73 78  72 77 78  73 74 79  73 78 79  75 76 81  75 80 81  76 77 82  76 81 82  77 78 83  77 82 83  78 79 84  78 83 84  80 81 86  80 85 86  81 82 87  81 86 87  82 83 88  82 87 88  83 84 89  83 88 89  85 86 91  85 90 91  86 87 92  86 91 92  87 88 93  87 92 93  88 89 94  88 93 94  90 91 96  90 95 96  91 92 97  91 96 97  92 93 98  92 97 98  93 94 99  93 98 99  95 96 101  95 100 101  96 97 102  96 101 102  97 98 103  97 102 103  98 99 104  98 103 104  100 101 106  100 105 106  101 102 107  101 106 107  102 103 108  102 107 108  103 104 109  103 108 109  105 106 111  105 110 111  106 107 112  106 111 112  107 108 113  107 112 113  108 109 114  108 113 114  110 111 116  110 115 116  111 112 117  111 116 117  112 113 118  112 117 118  113 114 119  113 118 119  115 116 121  115 120 121  116 117 122  116 121 122  117 118 123  117 122 123  118 119 124  118 123 124  120 121 126  120 125 126  121 122 127  121 126 127  122 123 128  122 127 128  123 124 129  123 128 129  125 126 131  125 130 131  126 127 132  126 131 132  127 128 133  127 132 133  128 129 134  128 133 134  </DataArray>
<DataArray  type="UInt32"  Name="offsets"  format="ascii">3 6 9 12 15 18 21 24 27 30 33 36 39 42 45 48 51 54 57 60 63 66 69 72 75 78 81 84 87 90 93 96 99 102 105 108 111 114 117 120 123 126 129 132 135 138 141 144 147 150 153 156 159 162 165 168 171 174 177 180 183 186 189 192 195 198 201 204 207 210 213 216 219 222 225 228 231 234 237 240 243 246 249 252 255 258 261 264 267 270 273 276 279 282 285 288 291 294 297 300 303 306 309 312 315 318 321 324 327 330 333 336 339 342 345 348 351 354 357 360 363 366 369 372 375 378 381 384 387 390 393 396 399 402 405 408 411 414 417 420 423 426 429 432 435 438 441 444 447 450 453 456 459 462 465 468 471 474 477 480 483 486 489 492 495 498 501 504 507 510 513 516 519 522 525 528 531 534 537 540 543 546 549 552 555 558 561 564 567 570 573 576 579 582 585 588 591 594 597 600 603 606 609 612 615 618 621 624 </DataArray>
<DataArray  type="UInt8"  Name="types"  format="ascii">5 5 5 5 5 5 5 5 5 5 5 5 5 5 5 5 5 5 5 5 5 5 5 5 5 5 5 5 5 5 5 5 5 5 5 5 5 5 5 5 5 5 5 5 5 5 5 5 5 5 5 5 5 5 5 5 5 5 5 5 5 5 5 5 5 5 5 5 5 5 5 5 5 5 5 5 5 5 5 5 5 5 5 5 5 5 5 5 5 5 5 5 5 5 5 5 5 5 5 5 5 5 5 5 5 5 5 5 5 5 5 5 5 5 5 5 5 5 5 5 5 5 5 5 5 5 5 5 5 5 5 5 5 5 5 5 5 5 5 5 5 5 5 5 5 5 5 5 5 5 5 5 5 5 5 5 5 5 5 5 5 5 5 5 5 5 5 5 5 5 5 5 5 5 5 5 5 5 5 5 5 5 5 5 5 5 5 5 5 5 5 5 5 5 5 5 5 5 5 5 5 5 5 5 5 5 5 5 </DataArray>
</Cells>
<PointData  Vectors="Displacement"> 
<DataArray  type="Float64"  Name="Displacement"  NumberOfComponents="3" format="ascii">-4.6446845535187477e-16 4.3555220667910306e-18 0.0000000000000000e+00  0.0000000000000000e+00 0.0000000000000000e+00 0.0000000000000000e+00  0.0000000000000000e+00 0.0000000000000000e+00 0.0000000000000000e+00  -5.4586516622890891e-17 5.9496893795830282e-19 0.0000000000000000e+00  1.6375954986867268e-16 -1.7849068138749086e-18 0.0000000000000000e+00  1.7124351913829232e-04 2.4553205110952451e-04 0.0000000000000000e+00  1.1933240368241513e-04 1.1798984358488538e-04 0.0000000000000000e+00  9.9001010064429755e-05 5.3498721222721531e-06 0.0000000000000000e+00  1.1307739950145416e-04 -1.0559801609657881e-04 0.0000000000000000e+00  1.6192242341143360e-04 -2.3436245489258752e-04 0.0000000000000000e+00  4.6237673238919347e-04 4.6947320922326695e-04 0.0000000000000000e+00  4.1566280900744742e-04 2.3472358874261813e-04 0.0000000000000000e+00  3.9842489728227331e-04 1.1470198466609614e-05 0.0000000000000000e+00  4.1145479847391048e-04 -2.1217547154974887e-04 0.0000000000000000e+00  4.5399070461794736e-04 -4.4714796458467527e-04 0.0000000000000000e+00  9.1763759635290067e-04 6.7398821107561341e-04 0.0000000000000000e+00  8.7575844811596027e-04 3.3950876963749889e-04 0.0000000000000000e+00  8.6086873555742474e-04 1.7174372955732397e-05 0.0000000000000000e+00  8.7158956895421792e-04 -3.0560997484875552e-04 0.0000000000000000e+00  9.0929800226320515e-04 -6.4080939407192374e-04 0.0000000000000000e+00  1.5192882131102659e-03 8.5379699133465172e-04 0.0000000000000000e+00  1.4831871747215146e-03 4.3053700220693048e-04 0.0000000000000000e+00  1.4698859104160797e-03 2.2378688317284133e-05 0.0000000000000000e+00  1.4789840312870034e-03 -3.8628665795585804e-04 0.0000000000000000e+00  1.5115174866790735e-03 -8.0915418723178495e-04 0.0000000000000000e+00  2.2450827516879599e-03 1.0029722985148584e-03 0.0000000000000000e+00  2.2150946740176298e-03 5.0838229216787121e-04 0.0000000000000000e+00  2.2037364861223620e-03 2.8282939563537887e-05 0.0000000000000000e+00  2.2108711869429053e-03 -4.5259945432222923e-04 0.0000000000000000e+00  2.2368741277132027e-03 -9.4744065014886652e-04 0.0000000000000000e+00  3.0697669709429973e-03 1.1243328220594422e-03 0.0000000000000000e+00  3.0440628955836512e-03 5.7243225947675844e-04 0.0000000000000000e+00  3.0345124283093173e-03 3.3802026269629822e-05 0.0000000000000000e+00  3.0408930145856810e-03 -5.0487682481671799e-04 0.0000000000000000e+00  3.0620346192037217e-03 -1.0566323304181063e-03 0.0000000000000000e+00  3.9664624987761120e-03 1.2207900428708608e-03 0.0000000000000000e+00  3.9468843127059535e-03 6.2450639758672888e-04 0.0000000000000000e+00  3.9390741054797377e-03 3.8943533619408327e-05 0.0000000000000000e+00  3.9437474099330259e-03 -5.4542781437177609e-04 0.0000000000000000e+00  3.9598720231321652e-03 -1.1398958745307195e-03 0.0000000000000000e+00  4.9242770663987037e-03 1.2964852954027049e-03 0.0000000000000000e+00  4.9073340178419659e-03 6.6648368626288565e-04 0.0000000000000000e+00  4.8997408092066120e-03 4.5417551679040079e-05 0.0000000000000000e+00  4.9024012833869812e-03 -5.7537994049388524e-04 0.0000000000000000e+00  4.9147491703913221e-03 -1.2043790569418987e-03 0.0000000000000000e+00  5.9229326125547991e-03 1.3554130525929619e-03 0.0000000000000000e+00  5.9100556884090017e-03 6.9935053237329947e-04 0.0000000000000000e+00  5.9046578962469402e-03 5.1354859688438083e-05 0.0000000000000000e+00  5.9064738828637029e-03 -5.9672183583111377e-04 0.0000000000000000e+00  5.9152631663891408e-03 -1.2529040064923253e-03 0.0000000000000000e+00  6.9562234379784670e-03 1.3978068586039678e-03 0.0000000000000000e+00  6.9469777160284978e-03 7.2328768412181462e-04 0.0000000000000000e+00  6.9427497741248500e-03 5.6430154953853839e-05 0.0000000000000000e+00  6.9437950855564994e-03 -6.1023362401944057e-04 0.0000000000000000e+00  6.9494285601348462e-03 -1.2841264133329020e-03 0.0000000000000000e+00  8.0118992616384603e-03 1.4265291888428198e-03 0.0000000000000000e+00  8.0038617947856168e-03 7.4157992916182270e-04 0.0000000000000000e+00  7.9995285278466315e-03 6.2802311190739775e-05 0.0000000000000000e+00  7.9995814118641751e-03 -6.1670485578822429e-04 0.0000000000000000e+00  8.0026997829948342e-03 -1.3015627166628413e-03 0.0000000000000000e+00  9.0740195092817132e-03 1.4455204402282341e-03 0.0000000000000000e+00  9.0690297884871724e-03 7.5539206957517485e-04 0.0000000000000000e+00  9.0668163631941936e-03 6.9330154476144294e-05 0.0000000000000000e+00  9.0665024759202569e-03 -6.1717660582184797e-04 0.0000000000000000e+00  9.0671761159895423e-03 -1.3076070768825454e-03 0.0000000000000000e+00  1.0146496220664067e-02 1.4583076320852280e-03 0.0000000000000000e+00  1.0142180529076273e-02 7.6385312468954753e-04 0.0000000000000000e+00  1.0139736085572230e-02 7.4835878314364297e-05 0.0000000000000000e+00  1.0138299076319406e-02 -6.1346901600971737e-04 0.0000000000000000e+00  1.0137553778198317e-02 -1.3060191987177947e-03 0.0000000000000000e+00  1.1216714154429338e-02 1.4603245974727616e-03 0.0000000000000000e+00  1.1215357065729898e-02 7.6843331360681565e-04 0.0000000000000000e+00  1.1213158055294409e-02 8.1646135484255458e-05 0.0000000000000000e+00  1.1210500870246862e-02 -6.0513655471723443e-04 0.0000000000000000e+00  1.1207387725763952e-02 -1.2961223370865943e-03 0.0000000000000000e+00  1.2281705503304461e-02 1.4525710604719286e-03 0.0000000000000000e+00  1.2281353262957168e-02 7.6841512922571264e-04 0.0000000000000000e+00  1.2279533424776903e-02 8.8177293846941455e-05 0.0000000000000000e+00  1.2276749995651752e-02 -5.9230925344052774e-04 0.0000000000000000e+00  1.2272354770251315e-02 -1.2766073725030706e-03 0.0000000000000000e+00  1.3330288119056642e-02 1.4380564931674750e-03 0.0000000000000000e+00  1.3331156367467107e-02 7.6437468704670746e-04 0.0000000000000000e+00  1.3330016053481606e-02 9.4125390487081713e-05 0.0000000000000000e+00  1.3326956417306563e-02 -5.7629951819538347e-04 0.0000000000000000e+00  1.3321003615561031e-02 -1.2488637535103394e-03 0.0000000000000000e+00  1.4357719263753212e-02 1.4182642084821662e-03 0.0000000000000000e+00  1.4359344586623158e-02 7.5908834105632608e-04 0.0000000000000000e+00  1.4358285952649477e-02 1.0117137235625687e-04 0.0000000000000000e+00  1.4354292721777915e-02 -5.5718874923210314e-04 0.0000000000000000e+00  1.4347193262791639e-02 -1.2159457448318522e-03 0.0000000000000000e+00  1.5360368337159909e-02 1.3976188888655198e-03 0.0000000000000000e+00  1.5361514592025725e-02 7.5267021318492012e-04 0.0000000000000000e+00  1.5360463886094668e-02 1.0765145160646384e-04 0.0000000000000000e+00  1.5357163383436475e-02 -5.3702827693741782e-04 0.0000000000000000e+00  1.5350663600106847e-02 -1.1811333927485284e-03 0.0000000000000000e+00  1.6336955357529107e-02 1.3765848456129528e-03 0.0000000000000000e+00  1.6339294182068084e-02 7.4598697008207893e-04 0.0000000000000000e+00  1.6339000449367411e-02 1.1400663983192249e-04 0.0000000000000000e+00  1.6335631428578384e-02 -5.1744325434631097e-04 0.0000000000000000e+00  1.6328679350895263e-02 -1.1468982141898151e-03 0.0000000000000000e+00  1.7297143715685800e-02 1.3580144481734708e-03 0.0000000000000000e+00  1.7298220361986572e-02 7.3880773296122412e-04 0.0000000000000000e+00  1.7297184638364493e-02 1.1996123050536681e-04 0.0000000000000000e+00  1.7293214423854217e-02 -4.9825541602148318e-04 0.0000000000000000e+00  1.7287154725018128e-02 -1.1151232583781292e-03 0.0000000000000000e+00  1.8236430646014518e-02 1.3388920538770310e-03 0.0000000000000000e+00  1.8238523402154198e-02 7.3216599966981287e-04 0.0000000000000000e+00  1.8237901812919764e-02 1.2600566382537558e-04 0.0000000000000000e+00  1.8234497175414220e-02 -4.7985918543556454e-04 0.0000000000000000e+00  1.8228301686501198e-02 -1.0858320860258432e-03 0.0000000000000000e+00  1.9160697203312982e-02 1.3194348895563101e-03 0.0000000000000000e+00  1.9162025005495551e-02 7.2525972967288398e-04 0.0000000000000000e+00  1.9161004772539764e-02 1.3124859038331823e-04 0.0000000000000000e+00  1.9157637131542667e-02 -4.6250216267562980e-04 0.0000000000000000e+00  1.9151755709940696e-02 -1.0548188536613613e-03 0.0000000000000000e+00  2.0059175573308816e-02 1.2999546654579852e-03 0.0000000000000000e+00  2.0059508889244921e-02 7.1983082033957163e-04 0.0000000000000000e+00  2.0058062029082051e-02 1.3634666520361214e-04 0.0000000000000000e+00  2.0055421968275654e-02 -4.4702711372492787e-04 0.0000000000000000e+00  2.0051236246379108e-02 -1.0260445097041002e-03 0.0000000000000000e+00  2.0936677891327846e-02 1.2880221008424993e-03 0.0000000000000000e+00  2.0936516342773090e-02 7.1672102105966185e-04 0.0000000000000000e+00  2.0935980016132581e-02 1.4123870861205276e-04 0.0000000000000000e+00  2.0933638574605850e-02 -4.3497330636566923e-04 0.0000000000000000e+00  2.0930095768412014e-02 -1.0065111143190151e-03 0.0000000000000000e+00  2.1810722292067333e-02 1.2869659075145381e-03 0.0000000000000000e+00  2.1807231641349244e-02 7.1598940161441630e-04 0.0000000000000000e+00  2.1806213169055698e-02 1.4389775189800125e-04 0.0000000000000000e+00  2.1805510866918846e-02 -4.2726892786655926e-04 0.0000000000000000e+00  2.1805812870830978e-02 -9.9530193513461740e-04 0.0000000000000000e+00  2.2684539826872772e-02 1.2893955400957698e-03 0.0000000000000000e+00  2.2682977887421234e-02 7.1888297630862369e-04 0.0000000000000000e+00  2.2681152627661898e-02 1.4707370948499111e-04 0.0000000000000000e+00  2.2679244900294063e-02 -4.2385048296016928e-04 0.0000000000000000e+00  2.2677776010643153e-02 -9.9269226340942718e-04 0.0000000000000000e+00  </DataArray> 
</PointData> 
</Piece>
</UnstructuredGrid>
</VTKFile>