<?xml version="1.0"?>
<VTKFile type="UnstructuredGrid"  version="0.1"  >
<UnstructuredGrid>
<Piece  NumberOfPoints="135" NumberOfCells="208">
<Points>
<DataArray  type="Float64"  NumberOfComponents="3"  format="ascii">-0.05 0 0  -0.025 0 0  0 0 0  0.02500000000000001 0 0  0.05 0 0  -0.05 0.03846153846153846 0  -0.025 0.03846153846153846 0  0 0.03846153846153846 0  0.02500000000000001 0.03846153846153846 0  0.05 0.03846153846153846 0  -0.05 0.07692307692307693 0  -0.025 0.07692307692307693 0  0 0.07692307692307693 0  0.02500000000000001 0.07692307692307693 0  0.05 0.07692307692307693 0  -0.05 0.1153846153846154 0  -0.025 0.1153846153846154 0  0 0.1153846153846154 0  0.02500000000000001 0.1153846153846154 0  0.05 0.1153846153846154 0  -0.05 0.1538461538461539 0  -0.025 0.1538461538461539 0  0 0.1538461538461539 0  0.02500000000000001 0.1538461538461539 0  0.05 0.1538461538461539 0  -0.05 0.1923076923076923 0  -0.025 0.1923076923076923 0  0 0.1923076923076923 0  0.02500000000000001 0.1923076923076923 0  0.05 0.1923076923076923 0  -0.05 0.2307692307692308 0  -0.025 0.2307692307692308 0  0 0.2307692307692308 0  0.02500000000000001 0.2307692307692308 0  0.05 0.2307692307692308 0  -0.05 0.2692307692307692 0  -0.025 0.2692307692307692 0  0 0.2692307692307692 0  0.02500000000000001 0.2692307692307692 0  0.05 0.2692307692307692 0  -0.05 0.3076923076923077 0  -0.025 0.3076923076923077 0  0 0.3076923076923077 0  0.02500000000000001 0.3076923076923077 0  0.05 0.3076923076923077 0  -0.05 0.3461538461538461 0  -0.025 0.3461538461538461 0  0 0.3461538461538461 0  0.02500000000000001 0.3461538461538461 0  0.05 0.3461538461538461 0  -0.05 0.3846153846153846 0  -0.025 0.3846153846153846 0  0 0.3846153846153846 0  0.02500000000000001 0.3846153846153846 0  0.05 0.3846153846153846 0  -0.05 0.4230769230769231 0  -0.025 0.4230769230769231 0  0 0.4230769230769231 0  0.02500000000000001 0.4230769230769231 0  0.05 0.4230769230769231 0  -0.05 0.4615384615384616 0  -0.025 0.4615384615384616 0  0 0.4615384615384616 0  0.02500000000000001 0.4615384615384616 0  0.05 0.4615384615384616 0  -0.05 0.5 0  -0.025 0.5 0  0 0.5 0  0.02500000000000001 0.5 0  0.05 0.5 0  -0.05 0.5384615384615384 0  -0.025 0.5384615384615384 0  0 0.5384615384615384 0  0.02500000000000001 0.5384615384615384 0  0.05 0.5384615384615384 0  -0.05 0.5769230769230769 0  -0.025 0.5769230769230769 0  0 0.5769230769230769 0  0.02500000000000001 0.5769230769230769 0  0.05 0.5769230769230769 0  -0.05 0.6153846153846154 0  -0.025 0.6153846153846154 0  0 0.6153846153846154 0  0.02500000000000001 0.6153846153846154 0  0.05 0.6153846153846154 0  -0.05 0.6538461538461539 0  -0.025 0.6538461538461539 0  0 0.6538461538461539 0  0.02500000000000001 0.6538461538461539 0  0.05 0.6538461538461539 0  -0.05 0.6923076923076923 0  -0.025 0.6923076923076923 0  0 0.6923076923076923 0  0.02500000000000001 0.6923076923076923 0  0.05 0.6923076923076923 0  -0.05 0.7307692307692307 0  -0.025 0.7307692307692307 0  0 0.7307692307692307 0  0.02500000000000001 0.7307692307692307 0  0.05 0.7307692307692307 0  -0.05 0.7692307692307693 0  -0.025 0.7692307692307693 0  0 0.7692307692307693 0  0.02500000000000001 0.7692307692307693 0  0.05 0.7692307692307693 0  -0.05 0.8076923076923077 0  -0.025 0.8076923076923077 0  0 0.8076923076923077 0  0.02500000000000001 0.8076923076923077 0  0.05 0.8076923076923077 0  -0.05 0.8461538461538461 0  -0.025 0.8461538461538461 0  0 0.8461538461538461 0  0.02500000000000001 0.8461538461538461 0  0.05 0.8461538461538461 0  -0.05 0.8846153846153846 0  -0.025 0.8846153846153846 0  0 0.8846153846153846 0  0.02500000000000001 0.8846153846153846 0  0.05 0.8846153846153846 0  -0.05 0.9230769230769231 0  -0.025 0.9230769230769231 0  0 0.9230769230769231 0  0.02500000000000001 0.9230769230769231 0  0.05 0.9230769230769231 0  -0.05 0.9615384615384616 0  -0.025 0.9615384615384616 0  0 0.9615384615384616 0  0.02500000000000001 0.9615384615384616 0  0.05 0.9615384615384616 0  -0.05 1 0  -0.025 1 0  0 1 0  0.02500000000000001 1 0  0.05 1 0  </DataArray>
</Points>
<Cells>
<DataArray  type="UInt32"  Name="connectivity"  format="ascii">0 1 6  0 5 6  1 2 7  1 6 7  2 3 8  2 7 8  3 4 9  3 8 9  5 6 11  5 10 11  6 7 12  6 11 12  7 8 13  7 12 13  8 9 14  8 13 14  10 11 16  10 15 16  11 12 17  11 16 17  12 13 18  12 17 18  13 14 19  13 18 19  15 16 21  15 20 21  16 17 22  16 21 22  17 18 23  17 22 23  18 19 24  18 23 24  20 21 26  20 25 26  21 22 27  21 26 27  22 23 28  22 27 28  23 24 29  23 28 29  25 26 31  25 30 31  26 27 32  26 31 32  27 28 33  27 32 33  28 29 34  28 33 34  30 31 36  30 35 36  31 32 37  31 36 37  32 33 38  32 37 38  33 34 39  33 38 39  35 36 41  35 40 41  36 37 42  36 41 42  37 38 43  37 42 43  38 39 44  38 43 44  40 41 46  40 45 46  41 42 47  41 46 47  42 43 48  42 47 48  43 44 49  43 48 49  45 46 51  45 50 51  46 47 52  46 51 52  47 48 53  47 52 53  48 49 54  48 53 54  50 51 56  50 55 56  51 52 57  51 56 57  52 53 58  52 57 58  53 54 59  53 58 59  55 56 61  55 60 61  56 57 62  56 61 62  57 58 63  57 62 63  58 59 64  58 63 64  60 61 66  60 65 66  61 62 67  61 66 67  62 63 68  62 67 68  63 64 69  63 68 69  65 66 71  65 70 71  66 67 72  66 71 72  67 68 73  67 72 73  68 69 74  68 73 74  70 71 76  70 75 76  71 72 77  71 76 77  72 73 78  72 77 78  73 74 79  73 78 79  75 76 81  75 80 81  76 77 82  76 81 82  77 78 83  77 82 83  78 79 84  78 83 84  80 81 86  80 85 86  81 82 87  81 86 87  82 83 88  82 87 88  83 84 89  83 88 89  85 86 91  85 90 91  86 87 92  86 91 92  87 88 93  87 92 93  88 89 94  88 93 94  90 91 96  90 95 96  91 92 97  91 96 97  92 93 98  92 97 98  93 94 99  93 98 99  95 96 101  95 100 101  96 97 102  96 101 102  97 98 103  97 102 103  98 99 104  98 103 104  100 101 106  100 105 106  101 102 107  101 106 107  102 103 108  102 107 108  103 104 109  103 108 109  105 106 111  105 110 111  106 107 112  106 111 112  107 108 113  107 112 113  108 109 114  108 113 114  110 111 116  110 115 116  111 112 117  111 116 117  112 113 118  112 117 118  113 114 119  113 118 119  115 116 121  115 120 121  116 117 122  116 121 122  117 118 123  117 122 123  118 119 124  118 123 124  120 121 126  120 125 126  121 122 127  121 126 127  122 123 128  122 127 128  123 124 129  123 128 129  125 126 131  125 130 131  126 127 132  126 131 132  127 128 133  127 132 133  128 129 134  128 133 134  </DataArray>
<DataArray  type="UInt32"  Name="offsets"  format="ascii">3 6 9 12 15 18 21 24 27 30 33 36 39 42 45 48 51 54 57 60 63 66 69 72 75 78 81 84 87 90 93 96 99 102 105 108 111 114 117 120 123 126 129 132 135 138 141 144 147 150 153 156 159 162 165 168 171 174 177 180 183 186 189 192 195 198 201 204 207 210 213 216 219 222 225 228 231 234 237 240 243 246 249 252 255 258 261 264 267 270 273 276 279 282 285 288 291 294 297 300 303 306 309 312 315 318 321 324 327 330 333 336 339 342 345 348 351 354 357 360 363 366 369 372 375 378 381 384 387 390 393 396 399 402 405 408 411 414 417 420 423 426 429 432 435 438 441 444 447 450 453 456 459 462 465 468 471 474 477 480 483 486 489 492 495 498 501 504 507 510 513 516 519 522 525 528 531 534 537 540 543 546 549 552 555 558 561 564 567 570 573 576 579 582 585 588 591 594 597 600 603 606 609 612 615 618 621 624 </DataArray>
<DataArray  type="UInt8"  Name="types"  format="ascii">5 5 5 5 5 5 5 5 5 5 5 5 5 5 5 5 5 5 5 5 5 5 5 5 5 5 5 5 5 5 5 5 5 5 5 5 5 5 5 5 5 5 5 5 5 5 5 5 5 5 5 5 5 5 5 5 5 5 5 5 5 5 5 5 5 5 5 5 5 5 5 5 5 5 5 5 5 5 5 5 5 5 5 5 5 5 5 5 5 5 5 5 5 5 5 5 5 5 5 5 5 5 5 5 5 5 5 5 5 5 5 5 5 5 5 5 5 5 5 5 5 5 5 5 5 5 5 5 5 5 5 5 5 5 5 5 5 5 5 5 5 5 5 5 5 5 5 5 5 5 5 5 5 5 5 5 5 5 5 5 5 5 5 5 5 5 5 5 5 5 5 5 5 5 5 5 5 5 5 5 5 5 5 5 5 5 5 5 5 5 5 5 5 5 5 5 5 5 5 5 5 5 5 5 5 5 5 5 </DataArray>
</Cells>
<PointData  Vectors="Displacement"> 
<DataArray  type="Float64"  Name="Displacement"  NumberOfComponents="3" format="ascii">-4.6956394343327665e-16 3.7472824258034042e-18 0.0000000000000000e+00  0.0000000000000000e+00 0.0000000000000000e+00 0.0000000000000000e+00  0.0000000000000000e+00 0.0000000000000000e+00 0.0000000000000000e+00  -5.4628881304832789e-17 5.1819413322718758e-19 0.0000000000000000e+00  1.6388664391449838e-16 -1.5545823996815629e-18 0.0000000000000000e+00  1.1257276588466335e-04 1.3944165731773201e-04 0.0000000000000000e+00  8.4192895106703869e-05 6.1579359064984249e-05 0.0000000000000000e+00  7.4140369037206764e-05 -3.8912822860899208e-06 0.0000000000000000e+00  8.3936256450899854e-05 -6.9814042721409058e-05 0.0000000000000000e+00  1.1484698731765177e-04 -1.5121497744637389e-04 0.0000000000000000e+00  2.9087050285198091e-04 2.5629876012226680e-04 0.0000000000000000e+00  2.6770218589287014e-04 1.1839268881543087e-04 0.0000000000000000e+00  2.6098249985355898e-04 -9.4232921554468849e-06 0.0000000000000000e+00  2.7123122753039506e-04 -1.3775696369309521e-04 0.0000000000000000e+00  2.9669269689895210e-04 -2.7733360042249124e-04 0.0000000000000000e+00  5.5743325887617557e-04 3.5558614966223656e-04 0.0000000000000000e+00  5.3780275004626076e-04 1.6554909210335700e-04 0.0000000000000000e+00  5.3239058160898308e-04 -1.5173417848120576e-05 0.0000000000000000e+00  5.4131390306659836e-04 -1.9636432297255441e-04 0.0000000000000000e+00  5.6376674937823129e-04 -3.8640516893700803e-04 0.0000000000000000e+00  8.9706333824716522e-04 4.3753994168960528e-04 0.0000000000000000e+00  8.8082863954399800e-04 2.0364480046863715e-04 0.0000000000000000e+00  8.7660395865965253e-04 -1.9996965932834979e-05 0.0000000000000000e+00  8.8399479983744718e-04 -2.4436073060673478e-04 0.0000000000000000e+00  9.0219512286468441e-04 -4.7897823182796592e-04 0.0000000000000000e+00  1.2962824084758035e-03 5.0256499761435120e-04 0.0000000000000000e+00  1.2847531510296836e-03 2.3344351087910501e-04 0.0000000000000000e+00  1.2820858981278677e-03 -2.5135593179367874e-05 0.0000000000000000e+00  1.2888872969114128e-03 -2.8389280486295043e-04 0.0000000000000000e+00  1.3034433837945311e-03 -5.5367758201546060e-04 0.0000000000000000e+00  1.7468302609194631e-03 5.4827611247144459e-04 0.0000000000000000e+00  1.7380925646696662e-03 2.5345386724204998e-04 0.0000000000000000e+00  1.7365586015560470e-03 -3.0061589178324566e-05 0.0000000000000000e+00  1.7413863036817884e-03 -3.1396291534492701e-04 0.0000000000000000e+00  1.7519151276886721e-03 -6.0780557660877852e-04 0.0000000000000000e+00  2.2252149074350326e-03 5.7364949557490216e-04 0.0000000000000000e+00  2.2220659884236525e-03 2.6421007445065112e-04 0.0000000000000000e+00  2.2211351868927439e-03 -3.4271040414905964e-05 0.0000000000000000e+00  2.2241905712881739e-03 -3.3228691146062437e-04 0.0000000000000000e+00  2.2297165082688893e-03 -6.4152257550584128e-04 0.0000000000000000e+00  2.7178278974829785e-03 5.7598781761025915e-04 0.0000000000000000e+00  2.7174056760009301e-03 2.6497974861089467e-04 0.0000000000000000e+00  2.7178044840027657e-03 -3.7543258631781027e-05 0.0000000000000000e+00  2.7196242471237328e-03 -3.4118490901914741e-04 0.0000000000000000e+00  2.7215598501826119e-03 -6.5265942954065629e-04 0.0000000000000000e+00  3.1989714288983679e-03 5.6219973881944214e-04 0.0000000000000000e+00  3.2013045676933917e-03 2.5841695355208888e-04 0.0000000000000000e+00  3.2023407127273603e-03 -4.1140571513102938e-05 0.0000000000000000e+00  3.2036171024067352e-03 -3.4106384914904959e-04 0.0000000000000000e+00  3.2024107191573861e-03 -6.4501529322482602e-04 0.0000000000000000e+00  3.6591816920873359e-03 5.4192685366112972e-04 0.0000000000000000e+00  3.6612096756747951e-03 2.4999353400860763e-04 0.0000000000000000e+00  3.6620095056486023e-03 -4.3690408153910494e-05 0.0000000000000000e+00  3.6629036753930383e-03 -3.3771175743852415e-04 0.0000000000000000e+00  3.6612601136113586e-03 -6.2938143025081982e-04 0.0000000000000000e+00  4.0964721646923668e-03 5.2737103986366890e-04 0.0000000000000000e+00  4.0963489531050381e-03 2.4332785118498369e-04 0.0000000000000000e+00  4.0972306133001280e-03 -4.5492903124390902e-05 0.0000000000000000e+00  4.0982626934129010e-03 -3.3456216203601096e-04 0.0000000000000000e+00  4.0979548633155389e-03 -6.1876628162690255e-04 0.0000000000000000e+00  4.5254664422589505e-03 5.2603883882323726e-04 0.0000000000000000e+00  4.5247009265474807e-03 2.4075985206237075e-04 0.0000000000000000e+00  4.5250092659552639e-03 -4.8066246190703867e-05 0.0000000000000000e+00  4.5265318341585724e-03 -3.3598330599291388e-04 0.0000000000000000e+00  4.5280316339365760e-03 -6.1993725357946785e-04 0.0000000000000000e+00  4.9664936047430193e-03 5.3247738156180803e-04 0.0000000000000000e+00  4.9629516261823032e-03 2.4198763067254372e-04 0.0000000000000000e+00  4.9622821848454715e-03 -4.9291237629234676e-05 0.0000000000000000e+00  4.9632847171985134e-03 -3.4080838652310048e-04 0.0000000000000000e+00  4.9661680750429024e-03 -6.3053068606740799e-04 0.0000000000000000e+00  5.4158325960977187e-03 5.4244468609416249e-04 0.0000000000000000e+00  5.4136127007442100e-03 2.4535805561635797e-04 0.0000000000000000e+00  5.4130746957782193e-03 -5.0570803315603157e-05 0.0000000000000000e+00  5.4145106023080819e-03 -3.4610314495322819e-04 0.0000000000000000e+00  5.4169602200692816e-03 -6.4313768811830702e-04 0.0000000000000000e+00  5.8808736524583087e-03 5.5014251855147909e-04 0.0000000000000000e+00  5.8786108675128370e-03 2.4796775980570509e-04 0.0000000000000000e+00  5.8785312267655414e-03 -5.1137216823755749e-05 0.0000000000000000e+00  5.8796215454897365e-03 -3.5039690463656000e-04 0.0000000000000000e+00  5.8813563885168011e-03 -6.5203038250737891e-04 0.0000000000000000e+00  6.3510772300826674e-03 5.5182903224033030e-04 0.0000000000000000e+00  6.3510786852956844e-03 2.4732475078982641e-04 0.0000000000000000e+00  6.3518815108072491e-03 -5.1570881328514023e-05 0.0000000000000000e+00  6.3524053796119766e-03 -3.4984231647129313e-04 0.0000000000000000e+00  6.3520050317871935e-03 -6.5342691566364476e-04 0.0000000000000000e+00  6.8250143020398705e-03 5.4373851958819733e-04 0.0000000000000000e+00  6.8275052556049853e-03 2.4239878647859431e-04 0.0000000000000000e+00  6.8283543447244773e-03 -5.1515982405127216e-05 0.0000000000000000e+00  6.8279127887730558e-03 -3.4443508917458404e-04 0.0000000000000000e+00  6.8250938301327438e-03 -6.4363498428150344e-04 0.0000000000000000e+00  7.2882556615254928e-03 5.2035495960424025e-04 0.0000000000000000e+00  7.2922348960105078e-03 2.3199311401498709e-04 0.0000000000000000e+00  7.2932526073142528e-03 -4.9973147534851554e-05 0.0000000000000000e+00  7.2914118416762715e-03 -3.3193474018503169e-04 0.0000000000000000e+00  7.2859966167903864e-03 -6.1930476845635475e-04 0.0000000000000000e+00  7.7204851541877641e-03 4.8519282706183250e-04 0.0000000000000000e+00  7.7277287688652385e-03 2.1635255050188616e-04 0.0000000000000000e+00  7.7298520272315041e-03 -4.8821501775575536e-05 0.0000000000000000e+00  7.7278811896479335e-03 -3.1359367566568874e-04 0.0000000000000000e+00  7.7198556606343800e-03 -5.8162763701390498e-04 0.0000000000000000e+00  8.1205033309911887e-03 4.4404213689096294e-04 0.0000000000000000e+00  8.1261314692616000e-03 1.9802894483344761e-04 0.0000000000000000e+00  8.1275291186822651e-03 -4.7051101357138835e-05 0.0000000000000000e+00  8.1248262915044490e-03 -2.9189096414942154e-04 0.0000000000000000e+00  8.1164434627669854e-03 -5.3549877029024655e-04 0.0000000000000000e+00  8.4731723795050309e-03 4.0309354013130035e-04 0.0000000000000000e+00  8.4792071998181454e-03 1.8140692017494989e-04 0.0000000000000000e+00  8.4804850100931341e-03 -4.4246493676678811e-05 0.0000000000000000e+00  8.4778748491107069e-03 -2.6930980655002807e-04 0.0000000000000000e+00  8.4696848350542513e-03 -4.9037143063771025e-04 0.0000000000000000e+00  8.7943174696673114e-03 3.7313328461622847e-04 0.0000000000000000e+00  8.7973648925825446e-03 1.6786802798467840e-04 0.0000000000000000e+00  8.7985105996520735e-03 -4.1728407331997624e-05 0.0000000000000000e+00  8.7967176864316796e-03 -2.5052374807390485e-04 0.0000000000000000e+00  8.7908669919844040e-03 -4.5371667842876787e-04 0.0000000000000000e+00  9.0916454196927707e-03 3.5414384589327542e-04 0.0000000000000000e+00  9.0923921358503704e-03 1.5980954388127253e-04 0.0000000000000000e+00  9.0922473546412568e-03 -3.9097709736543416e-05 0.0000000000000000e+00  9.0907280111904472e-03 -2.3682128352277656e-04 0.0000000000000000e+00  9.0875840982419572e-03 -4.2814466655473256e-04 0.0000000000000000e+00  9.3757336581535636e-03 3.4600905585140655e-04 0.0000000000000000e+00  9.3755289895804776e-03 1.5653834734059301e-04 0.0000000000000000e+00  9.3748807974202032e-03 -3.6235074389119357e-05 0.0000000000000000e+00  9.3737961711920087e-03 -2.2811387190677085e-04 0.0000000000000000e+00  9.3719635072605015e-03 -4.1590065452275753e-04 0.0000000000000000e+00  9.6644188918472845e-03 3.4705044450947497e-04 0.0000000000000000e+00  9.6608574131487775e-03 1.5674789922000905e-04 0.0000000000000000e+00  9.6597253025949587e-03 -3.3684405619581446e-05 0.0000000000000000e+00  9.6597252534901742e-03 -2.2405297375621686e-04 0.0000000000000000e+00  9.6611512728617156e-03 -4.1219883130207146e-04 0.0000000000000000e+00  9.9526785146940924e-03 3.4945265850998134e-04 0.0000000000000000e+00  9.9517803072978368e-03 1.5933085923620365e-04 0.0000000000000000e+00  9.9515270671926663e-03 -3.1365709233400879e-05 0.0000000000000000e+00  9.9510826767229658e-03 -2.2173031084483431e-04 0.0000000000000000e+00  9.9506658925781685e-03 -4.1189643738621565e-04 0.0000000000000000e+00  </DataArray> 
</PointData> 
</Piece>
</UnstructuredGrid>
</VTKFile>