<?xml version="1.0"?>
<VTKFile type="UnstructuredGrid"  version="0.1"  >
<UnstructuredGrid>
<Piece  NumberOfPoints="135" NumberOfCells="208">
<Points>
<DataArray  type="Float64"  NumberOfComponents="3"  format="ascii">-0.05 0 0  -0.025 0 0  0 0 0  0.02500000000000001 0 0  0.05 0 0  -0.05 0.03846153846153846 0  -0.025 0.03846153846153846 0  0 0.03846153846153846 0  0.02500000000000001 0.03846153846153846 0  0.05 0.03846153846153846 0  -0.05 0.07692307692307693 0  -0.025 0.07692307692307693 0  0 0.07692307692307693 0  0.02500000000000001 0.07692307692307693 0  0.05 0.07692307692307693 0  -0.05 0.1153846153846154 0  -0.025 0.1153846153846154 0  0 0.1153846153846154 0  0.02500000000000001 0.1153846153846154 0  0.05 0.1153846153846154 0  -0.05 0.1538461538461539 0  -0.025 0.1538461538461539 0  0 0.1538461538461539 0  0.02500000000000001 0.1538461538461539 0  0.05 0.1538461538461539 0  -0.05 0.1923076923076923 0  -0.025 0.1923076923076923 0  0 0.1923076923076923 0  0.02500000000000001 0.1923076923076923 0  0.05 0.1923076923076923 0  -0.05 0.2307692307692308 0  -0.025 0.2307692307692308 0  0 0.2307692307692308 0  0.02500000000000001 0.2307692307692308 0  0.05 0.2307692307692308 0  -0.05 0.2692307692307692 0  -0.025 0.2692307692307692 0  0 0.2692307692307692 0  0.02500000000000001 0.2692307692307692 0  0.05 0.2692307692307692 0  -0.05 0.3076923076923077 0  -0.025 0.3076923076923077 0  0 0.3076923076923077 0  0.02500000000000001 0.3076923076923077 0  0.05 0.3076923076923077 0  -0.05 0.3461538461538461 0  -0.025 0.3461538461538461 0  0 0.3461538461538461 0  0.02500000000000001 0.3461538461538461 0  0.05 0.3461538461538461 0  -0.05 0.3846153846153846 0  -0.025 0.3846153846153846 0  0 0.3846153846153846 0  0.02500000000000001 0.3846153846153846 0  0.05 0.3846153846153846 0  -0.05 0.4230769230769231 0  -0.025 0.4230769230769231 0  0 0.4230769230769231 0  0.02500000000000001 0.4230769230769231 0  0.05 0.4230769230769231 0  -0.05 0.4615384615384616 0  -0.025 0.4615384615384616 0  0 0.4615384615384616 0  0.02500000000000001 0.4615384615384616 0  0.05 0.4615384615384616 0  -0.05 0.5 0  -0.025 0.5 0  0 0.5 0  0.02500000000000001 0.5 0  0.05 0.5 0  -0.05 0.5384615384615384 0  -0.025 0.5384615384615384 0  0 0.5384615384615384 0  0.02500000000000001 0.5384615384615384 0  0.05 0.5384615384615384 0  -0.05 0.5769230769230769 0  -0.025 0.5769230769230769 0  0 0.5769230769230769 0  0.02500000000000001 0.5769230769230769 0  0.05 0.5769230769230769 0  -0.05 0.6153846153846154 0  -0.025 0.6153846153846154 0  0 0.6153846153846154 0  0.02500000000000001 0.6153846153846154 0  0.05 0.6153846153846154 0  -0.05 0.6538461538461539 0  -0.025 0.6538461538461539 0  0 0.6538461538461539 0  0.02500000000000001 0.6538461538461539 0  0.05 0.6538461538461539 0  -0.05 0.6923076923076923 0  -0.025 0.6923076923076923 0  0 0.6923076923076923 0  0.02500000000000001 0.6923076923076923 0  0.05 0.6923076923076923 0  -0.05 0.7307692307692307 0  -0.025 0.7307692307692307 0  0 0.7307692307692307 0  0.02500000000000001 0.7307692307692307 0  0.05 0.7307692307692307 0  -0.05 0.7692307692307693 0  -0.025 0.7692307692307693 0  0 0.7692307692307693 0  0.02500000000000001 0.7692307692307693 0  0.05 0.7692307692307693 0  -0.05 0.8076923076923077 0  -0.025 0.8076923076923077 0  0 0.8076923076923077 0  0.02500000000000001 0.8076923076923077 0  0.05 0.8076923076923077 0  -0.05 0.8461538461538461 0  -0.025 0.8461538461538461 0  0 0.8461538461538461 0  0.02500000000000001 0.8461538461538461 0  0.05 0.8461538461538461 0  -0.05 0.8846153846153846 0  -0.025 0.8846153846153846 0  0 0.8846153846153846 0  0.02500000000000001 0.8846153846153846 0  0.05 0.8846153846153846 0  -0.05 0.9230769230769231 0  -0.025 0.9230769230769231 0  0 0.9230769230769231 0  0.02500000000000001 0.9230769230769231 0  0.05 0.9230769230769231 0  -0.05 0.9615384615384616 0  -0.025 0.9615384615384616 0  0 0.9615384615384616 0  0.02500000000000001 0.9615384615384616 0  0.05 0.9615384615384616 0  -0.05 1 0  -0.025 1 0  0 1 0  0.02500000000000001 1 0  0.05 1 0  </DataArray>
</Points>
<Cells>
<DataArray  type="UInt32"  Name="connectivity"  format="ascii">0 1 6  0 5 6  1 2 7  1 6 7  2 3 8  2 7 8  3 4 9  3 8 9  5 6 11  5 10 11  6 7 12  6 11 12  7 8 13  7 12 13  8 9 14  8 13 14  10 11 16  10 15 16  11 12 17  11 16 17  12 13 18  12 17 18  13 14 19  13 18 19  15 16 21  15 20 21  16 17 22  16 21 22  17 18 23  17 22 23  18 19 24  18 23 24  20 21 26  20 25 26  21 22 27  21 26 27  22 23 28  22 27 28  23 24 29  23 28 29  25 26 31  25 30 31  26 27 32  26 31 32  27 28 33  27 32 33  28 29 34  28 33 34  30 31 36  30 35 36  31 32 37  31 36 37  32 33 38  32 37 38  33 34 39  33 38 39  35 36 41  35 40 41  36 37 42  36 41 42  37 38 43  37 42 43  38 39 44  38 43 44  40 41 46  40 45 46  41 42 47  41 46 47  42 43 48  42 47 48  43 44 49  43 48 49  45 46 51  45 50 51  46 47 52  46 51 52  47 48 53  47 52 53  48 49 54  48 53 54  50 51 56  50 55 56  51 52 57  51 56 57  52 53 58  52 57 58  53 54 59  53 58 59  55 56 61  55 60 61  56 57 62  56 61 62  57 58 63  57 62 63  58 59 64  58 63 64  60 61 66  60 65 66  61 62 67  61 66 67  62 63 68  62 67 68  63 64 69  63 68 69  65 66 71  65 70 71  66 67 72  66 71 72  67 68 73  67 72 73  68 69 74  68 73 74  70 71 76  70 75 76  71 72 77  71 76 77  72 73 78  72 77 78  73 74 79  73 78 79  75 76 81  75 80 81  76 77 82  76 81 82  77 78 83  77 82 83  78 79 84  78 83 84  80 81 86  80 85 86  81 82 87  81 86 87  82 83 88  82 87 88  83 84 89  83 88 89  85 86 91  85 90 91  86 87 92  86 91 92  87 88 93  87 92 93  88 89 94  88 93 94  90 91 96  90 95 96  91 92 97  91 96 97  92 93 98  92 97 98  93 94 99  93 98 99  95 96 101  95 100 101  96 97 102  96 101 102  97 98 103  97 102 103  98 99 104  98 103 104  100 101 106  100 105 106  101 102 107  101 106 107  102 103 108  102 107 108  103 104 109  103 108 109  105 106 111  105 110 111  106 107 112  106 111 112  107 108 113  107 112 113  108 109 114  108 113 114  110 111 116  110 115 116  111 112 117  111 116 117  112 113 118  112 117 118  113 114 119  113 118 119  115 116 121  115 120 121  116 117 122  116 121 122  117 118 123  117 122 123  118 119 124  118 123 124  120 121 126  120 125 126  121 122 127  121 126 127  122 123 128  122 127 128  123 124 129  123 128 129  125 126 131  125 130 131  126 127 132  126 131 132  127 128 133  127 132 133  128 129 134  128 133 134  </DataArray>
<DataArray  type="UInt32"  Name="offsets"  format="ascii">3 6 9 12 15 18 21 24 27 30 33 36 39 42 45 48 51 54 57 60 63 66 69 72 75 78 81 84 87 90 93 96 99 102 105 108 111 114 117 120 123 126 129 132 135 138 141 144 147 150 153 156 159 162 165 168 171 174 177 180 183 186 189 192 195 198 201 204 207 210 213 216 219 222 225 228 231 234 237 240 243 246 249 252 255 258 261 264 267 270 273 276 279 282 285 288 291 294 297 300 303 306 309 312 315 318 321 324 327 330 333 336 339 342 345 348 351 354 357 360 363 366 369 372 375 378 381 384 387 390 393 396 399 402 405 408 411 414 417 420 423 426 429 432 435 438 441 444 447 450 453 456 459 462 465 468 471 474 477 480 483 486 489 492 495 498 501 504 507 510 513 516 519 522 525 528 531 534 537 540 543 546 549 552 555 558 561 564 567 570 573 576 579 582 585 588 591 594 597 600 603 606 609 612 615 618 621 624 </DataArray>
<DataArray  type="UInt8"  Name="types"  format="ascii">5 5 5 5 5 5 5 5 5 5 5 5 5 5 5 5 5 5 5 5 5 5 5 5 5 5 5 5 5 5 5 5 5 5 5 5 5 5 5 5 5 5 5 5 5 5 5 5 5 5 5 5 5 5 5 5 5 5 5 5 5 5 5 5 5 5 5 5 5 5 5 5 5 5 5 5 5 5 5 5 5 5 5 5 5 5 5 5 5 5 5 5 5 5 5 5 5 5 5 5 5 5 5 5 5 5 5 5 5 5 5 5 5 5 5 5 5 5 5 5 5 5 5 5 5 5 5 5 5 5 5 5 5 5 5 5 5 5 5 5 5 5 5 5 5 5 5 5 5 5 5 5 5 5 5 5 5 5 5 5 5 5 5 5 5 5 5 5 5 5 5 5 5 5 5 5 5 5 5 5 5 5 5 5 5 5 5 5 5 5 5 5 5 5 5 5 5 5 5 5 5 5 5 5 5 5 5 5 </DataArray>
</Cells>
<PointData  Vectors="Displacement"> 
<DataArray  type="Float64"  Name="Displacement"  NumberOfComponents="3" format="ascii">-4.5120876144541999e-16 4.0881016142016575e-18 0.0000000000000000e+00  0.0000000000000000e+00 0.0000000000000000e+00 0.0000000000000000e+00  0.0000000000000000e+00 0.0000000000000000e+00 0.0000000000000000e+00  -5.9420359424127111e-17 1.0484438544107744e-18 0.0000000000000000e+00  1.7826107827238134e-16 -3.1453315632323235e-18 0.0000000000000000e+00  1.2470831477785980e-04 1.7958762236125215e-04 0.0000000000000000e+00  8.4260554457755665e-05 8.6316109375399056e-05 0.0000000000000000e+00  6.8355168903783570e-05 2.8120610132426496e-06 0.0000000000000000e+00  7.9160993940813464e-05 -7.9996802269684603e-05 0.0000000000000000e+00  1.1695269966865597e-04 -1.7450182761664804e-04 0.0000000000000000e+00  3.3468846373263625e-04 3.4698981077416462e-04 0.0000000000000000e+00  2.9937448062111093e-04 1.7275482028095707e-04 0.0000000000000000e+00  2.8708029948272150e-04 5.6541301325735728e-06 0.0000000000000000e+00  2.9755621342981845e-04 -1.6177781573398445e-04 0.0000000000000000e+00  3.3065873175412486e-04 -3.3642980214235955e-04 0.0000000000000000e+00  6.7237633690323689e-04 5.0189278997243153e-04 0.0000000000000000e+00  6.3934580333652961e-04 2.5104414230718819e-04 0.0000000000000000e+00  6.2761668879128269e-04 7.7880026256059406e-06 0.0000000000000000e+00  6.3715056316115785e-04 -2.3570481328452072e-04 0.0000000000000000e+00  6.6783266249553601e-04 -4.8601466801466225e-04 0.0000000000000000e+00  1.1209385121771999e-03 6.4338167509591466e-04 0.0000000000000000e+00  1.0902985638514826e-03 3.2288786663425053e-04 0.0000000000000000e+00  1.0796135393011516e-03 9.8908257495744750e-06 0.0000000000000000e+00  1.0882266187271219e-03 -3.0327565447355265e-04 0.0000000000000000e+00  1.1162881261430615e-03 -6.2357564562869972e-04 0.0000000000000000e+00  1.6719645604672249e-03 7.7169816395015426e-04 0.0000000000000000e+00  1.6464703329189523e-03 3.8659000009418044e-04 0.0000000000000000e+00  1.6377155958107320e-03 1.1562467497786451e-05 0.0000000000000000e+00  1.6450395388446803e-03 -3.6365922749567297e-04 0.0000000000000000e+00  1.6693798353357688e-03 -7.4842455153604321e-04 0.0000000000000000e+00  2.3241144842046503e-03 8.8098158525348031e-04 0.0000000000000000e+00  2.3003574649425183e-03 4.4142446967655480e-04 0.0000000000000000e+00  2.2917003913785336e-03 1.3027517439533448e-05 0.0000000000000000e+00  2.2981459170885801e-03 -4.1554263908238974e-04 0.0000000000000000e+00  2.3194063431162641e-03 -8.5468352631719682e-04 0.0000000000000000e+00  3.0427530832058611e-03 9.6785906921390680e-04 0.0000000000000000e+00  3.0260552901024943e-03 4.8575389928110147e-04 0.0000000000000000e+00  3.0202781646499208e-03 1.4094255460094800e-05 0.0000000000000000e+00  3.0252628423889376e-03 -4.5775211145518917e-04 0.0000000000000000e+00  3.0413106032830179e-03 -9.3966902757307161e-04 0.0000000000000000e+00  3.8260221977254108e-03 1.0349254495088094e-03 0.0000000000000000e+00  3.8107639652162221e-03 5.2004982471872969e-04 0.0000000000000000e+00  3.8050055267207041e-03 1.4786942448178038e-05 0.0000000000000000e+00  3.8090316581774726e-03 -4.9062934965027902e-04 0.0000000000000000e+00  3.8222673253742729e-03 -1.0048067834663649e-03 0.0000000000000000e+00  4.6448277433116690e-03 1.0851021188567767e-03 0.0000000000000000e+00  4.6343272447157092e-03 5.4596639544272115e-04 0.0000000000000000e+00  4.6307755981600321e-03 1.5336693888211917e-05 0.0000000000000000e+00  4.6335549925277915e-03 -5.1542877550878703e-04 0.0000000000000000e+00  4.6429153616609365e-03 -1.0543018328334481e-03 0.0000000000000000e+00  5.5005762653882687e-03 1.1211703892397185e-03 0.0000000000000000e+00  5.4934354679684154e-03 5.6310155141495763e-04 0.0000000000000000e+00  5.4908885913352900e-03 1.5534358291782755e-05 0.0000000000000000e+00  5.4924146723309246e-03 -5.3214545069099118e-04 0.0000000000000000e+00  5.4985472161930195e-03 -1.0894701565723113e-03 0.0000000000000000e+00  6.3817343650848573e-03 1.1390249070182580e-03 0.0000000000000000e+00  6.3777920370289721e-03 5.7149399709902754e-04 0.0000000000000000e+00  6.3762543268116893e-03 1.5839336931399890e-05 0.0000000000000000e+00  6.3765165716500915e-03 -5.3988307867998549e-04 0.0000000000000000e+00  6.3788278888069535e-03 -1.1067865370316321e-03 0.0000000000000000e+00  7.2665939504189007e-03 1.1343816532036358e-03 0.0000000000000000e+00  7.2697731709712825e-03 5.6847828906608257e-04 0.0000000000000000e+00  7.2707589390107012e-03 1.6017049907975396e-05 0.0000000000000000e+00  7.2692259776211783e-03 -5.3650630723204749e-04 0.0000000000000000e+00  7.2658806524667765e-03 -1.1017141563274724e-03 0.0000000000000000e+00  8.1466790588564670e-03 1.1041325446661228e-03 0.0000000000000000e+00  8.1521269828738786e-03 5.5379190086205638e-04 0.0000000000000000e+00  8.1531942311226357e-03 1.6394363555699278e-05 0.0000000000000000e+00  8.1503115317443434e-03 -5.2101351791668347e-04 0.0000000000000000e+00  8.1428306215649334e-03 -1.0701663633994286e-03 0.0000000000000000e+00  8.9807109659010391e-03 1.0487009210040613e-03 0.0000000000000000e+00  8.9931724509434933e-03 5.2782976497899633e-04 0.0000000000000000e+00  8.9970082001441833e-03 1.6952907429848354e-05 0.0000000000000000e+00  8.9924793620807034e-03 -4.9393607539095286e-04 0.0000000000000000e+00  8.9794276030857635e-03 -1.0141143489751151e-03 0.0000000000000000e+00  9.7659303894837898e-03 9.7521255976162826e-04 0.0000000000000000e+00  9.7793748519749632e-03 4.9277049689401206e-04 0.0000000000000000e+00  9.7829921073662070e-03 1.7588567644576311e-05 0.0000000000000000e+00  9.7775373576184064e-03 -4.5758782428598747e-04 0.0000000000000000e+00  9.7620732474156986e-03 -9.3864650578612491e-04 0.0000000000000000e+00  1.0476707065923199e-02 8.9001833641192351e-04 0.0000000000000000e+00  1.0492514872017134e-02 4.5261571405098540e-04 0.0000000000000000e+00  1.0497315705259811e-02 1.8521423799874874e-05 0.0000000000000000e+00  1.0491179550052337e-02 -4.1558027887694766e-04 0.0000000000000000e+00  1.0473612589107667e-02 -8.5212639017113664e-04 0.0000000000000000e+00  1.1115314768996458e-02 8.0147600407449104e-04 0.0000000000000000e+00  1.1132030475461104e-02 4.0945446763834061e-04 0.0000000000000000e+00  1.1137150325463007e-02 1.9310969788280581e-05 0.0000000000000000e+00  1.1130673794195424e-02 -3.7085455979013801e-04 0.0000000000000000e+00  1.1112476278314619e-02 -7.6179164000210985e-04 0.0000000000000000e+00  1.1684916859227670e-02 7.1286078051919100e-04 0.0000000000000000e+00  1.1699986566021822e-02 3.6619219209304323e-04 0.0000000000000000e+00  1.1704471108730095e-02 2.0219961451366442e-05 0.0000000000000000e+00  1.1698138036586333e-02 -3.2575543928233588e-04 0.0000000000000000e+00  1.1680657941553775e-02 -6.7114628847954761e-04 0.0000000000000000e+00  1.2178016408738900e-02 6.2495288689461766e-04 0.0000000000000000e+00  1.2195185855128264e-02 3.2305283969947721e-04 0.0000000000000000e+00  1.2200744718244916e-02 2.0934498692046042e-05 0.0000000000000000e+00  1.2194399387620057e-02 -2.8118083040723160e-04 0.0000000000000000e+00  1.2176370524275433e-02 -5.8225240118267726e-04 0.0000000000000000e+00  1.2610118781178991e-02 5.4006935914635470e-04 0.0000000000000000e+00  1.2623723159508089e-02 2.8141203312850269e-04 0.0000000000000000e+00  1.2627548185622429e-02 2.1615721705729150e-05 0.0000000000000000e+00  1.2621784840936911e-02 -2.3808390932736890e-04 0.0000000000000000e+00  1.2605747151431621e-02 -4.9474396800933400e-04 0.0000000000000000e+00  1.2964510124090809e-02 4.5920215813669842e-04 0.0000000000000000e+00  1.2978549404157476e-02 2.4314835611358539e-04 0.0000000000000000e+00  1.2982987978632444e-02 2.2481786193664448e-05 0.0000000000000000e+00  1.2977669243004728e-02 -1.9801600232879798e-04 0.0000000000000000e+00  1.2962298052223689e-02 -4.1279058128494163e-04 0.0000000000000000e+00  1.3261240019581268e-02 3.9135804048364152e-04 0.0000000000000000e+00  1.3270743497251781e-02 2.1050529943761808e-04 0.0000000000000000e+00  1.3273330771162857e-02 2.3503345711472038e-05 0.0000000000000000e+00  1.3268901122485896e-02 -1.6320782951802766e-04 0.0000000000000000e+00  1.3256985408372000e-02 -3.4164893101809607e-04 0.0000000000000000e+00  1.3504108706398307e-02 3.4092369603174627e-04 0.0000000000000000e+00  1.3509673738329708e-02 1.8684340078262056e-04 0.0000000000000000e+00  1.3511232419314323e-02 2.5143124271817310e-05 0.0000000000000000e+00  1.3507825242757359e-02 -1.3615955218401225e-04 0.0000000000000000e+00  1.3499664659727996e-02 -2.8779346528114310e-04 0.0000000000000000e+00  1.3713398979735916e-02 3.1130008680072913e-04 0.0000000000000000e+00  1.3716207468047628e-02 1.7226712396063373e-04 0.0000000000000000e+00  1.3716975364215666e-02 2.6988507296089776e-05 0.0000000000000000e+00  1.3714363521385137e-02 -1.1779686931436876e-04 0.0000000000000000e+00  1.3709379553031083e-02 -2.5474531031399115e-04 0.0000000000000000e+00  1.3916234774482641e-02 3.0189957573464627e-04 0.0000000000000000e+00  1.3913008399852654e-02 1.6657211335895612e-04 0.0000000000000000e+00  1.3911713033403337e-02 2.8817137872702328e-05 0.0000000000000000e+00  1.3910799041383299e-02 -1.0821047433918632e-04 0.0000000000000000e+00  1.3911570565511002e-02 -2.3962000138929180e-04 0.0000000000000000e+00  1.4115217043244617e-02 3.0283809347043960e-04 0.0000000000000000e+00  1.4114228430683939e-02 1.6808878785555263e-04 0.0000000000000000e+00  1.4113466575333057e-02 3.1528705103172735e-05 0.0000000000000000e+00  1.4111564076555545e-02 -1.0415694344425171e-04 0.0000000000000000e+00  1.4110112181808953e-02 -2.3760681036676286e-04 0.0000000000000000e+00  </DataArray> 
</PointData> 
</Piece>
</UnstructuredGrid>
</VTKFile>