<?xml version="1.0"?>
<VTKFile type="UnstructuredGrid"  version="0.1"  >
<UnstructuredGrid>
<Piece  NumberOfPoints="135" NumberOfCells="208">
<Points>
<DataArray  type="Float64"  NumberOfComponents="3"  format="ascii">-0.05 0 0  -0.025 0 0  0 0 0  0.02500000000000001 0 0  0.05 0 0  -0.05 0.03846153846153846 0  -0.025 0.03846153846153846 0  0 0.03846153846153846 0  0.02500000000000001 0.03846153846153846 0  0.05 0.03846153846153846 0  -0.05 0.07692307692307693 0  -0.025 0.07692307692307693 0  0 0.07692307692307693 0  0.02500000000000001 0.07692307692307693 0  0.05 0.07692307692307693 0  -0.05 0.1153846153846154 0  -0.025 0.1153846153846154 0  0 0.1153846153846154 0  0.02500000000000001 0.1153846153846154 0  0.05 0.1153846153846154 0  -0.05 0.1538461538461539 0  -0.025 0.1538461538461539 0  0 0.1538461538461539 0  0.02500000000000001 0.1538461538461539 0  0.05 0.1538461538461539 0  -0.05 0.1923076923076923 0  -0.025 0.1923076923076923 0  0 0.1923076923076923 0  0.02500000000000001 0.1923076923076923 0  0.05 0.1923076923076923 0  -0.05 0.2307692307692308 0  -0.025 0.2307692307692308 0  0 0.2307692307692308 0  0.02500000000000001 0.2307692307692308 0  0.05 0.2307692307692308 0  -0.05 0.2692307692307692 0  -0.025 0.2692307692307692 0  0 0.2692307692307692 0  0.02500000000000001 0.2692307692307692 0  0.05 0.2692307692307692 0  -0.05 0.3076923076923077 0  -0.025 0.3076923076923077 0  0 0.3076923076923077 0  0.02500000000000001 0.3076923076923077 0  0.05 0.3076923076923077 0  -0.05 0.3461538461538461 0  -0.025 0.3461538461538461 0  0 0.3461538461538461 0  0.02500000000000001 0.3461538461538461 0  0.05 0.3461538461538461 0  -0.05 0.3846153846153846 0  -0.025 0.3846153846153846 0  0 0.3846153846153846 0  0.02500000000000001 0.3846153846153846 0  0.05 0.3846153846153846 0  -0.05 0.4230769230769231 0  -0.025 0.4230769230769231 0  0 0.4230769230769231 0  0.02500000000000001 0.4230769230769231 0  0.05 0.4230769230769231 0  -0.05 0.4615384615384616 0  -0.025 0.4615384615384616 0  0 0.4615384615384616 0  0.02500000000000001 0.4615384615384616 0  0.05 0.4615384615384616 0  -0.05 0.5 0  -0.025 0.5 0  0 0.5 0  0.02500000000000001 0.5 0  0.05 0.5 0  -0.05 0.5384615384615384 0  -0.025 0.5384615384615384 0  0 0.5384615384615384 0  0.02500000000000001 0.5384615384615384 0  0.05 0.5384615384615384 0  -0.05 0.5769230769230769 0  -0.025 0.5769230769230769 0  0 0.5769230769230769 0  0.02500000000000001 0.5769230769230769 0  0.05 0.5769230769230769 0  -0.05 0.6153846153846154 0  -0.025 0.6153846153846154 0  0 0.6153846153846154 0  0.02500000000000001 0.6153846153846154 0  0.05 0.6153846153846154 0  -0.05 0.6538461538461539 0  -0.025 0.6538461538461539 0  0 0.6538461538461539 0  0.02500000000000001 0.6538461538461539 0  0.05 0.6538461538461539 0  -0.05 0.6923076923076923 0  -0.025 0.6923076923076923 0  0 0.6923076923076923 0  0.02500000000000001 0.6923076923076923 0  0.05 0.6923076923076923 0  -0.05 0.7307692307692307 0  -0.025 0.7307692307692307 0  0 0.7307692307692307 0  0.02500000000000001 0.7307692307692307 0  0.05 0.7307692307692307 0  -0.05 0.7692307692307693 0  -0.025 0.7692307692307693 0  0 0.7692307692307693 0  0.02500000000000001 0.7692307692307693 0  0.05 0.7692307692307693 0  -0.05 0.8076923076923077 0  -0.025 0.8076923076923077 0  0 0.8076923076923077 0  0.02500000000000001 0.8076923076923077 0  0.05 0.8076923076923077 0  -0.05 0.8461538461538461 0  -0.025 0.8461538461538461 0  0 0.8461538461538461 0  0.02500000000000001 0.8461538461538461 0  0.05 0.8461538461538461 0  -0.05 0.8846153846153846 0  -0.025 0.8846153846153846 0  0 0.8846153846153846 0  0.02500000000000001 0.8846153846153846 0  0.05 0.8846153846153846 0  -0.05 0.9230769230769231 0  -0.025 0.9230769230769231 0  0 0.9230769230769231 0  0.02500000000000001 0.9230769230769231 0  0.05 0.9230769230769231 0  -0.05 0.9615384615384616 0  -0.025 0.9615384615384616 0  0 0.9615384615384616 0  0.02500000000000001 0.9615384615384616 0  0.05 0.9615384615384616 0  -0.05 1 0  -0.025 1 0  0 1 0  0.02500000000000001 1 0  0.05 1 0  </DataArray>
</Points>
<Cells>
<DataArray  type="UInt32"  Name="connectivity"  format="ascii">0 1 6  0 5 6  1 2 7  1 6 7  2 3 8  2 7 8  3 4 9  3 8 9  5 6 11  5 10 11  6 7 12  6 11 12  7 8 13  7 12 13  8 9 14  8 13 14  10 11 16  10 15 16  11 12 17  11 16 17  12 13 18  12 17 18  13 14 19  13 18 19  15 16 21  15 20 21  16 17 22  16 21 22  17 18 23  17 22 23  18 19 24  18 23 24  20 21 26  20 25 26  21 22 27  21 26 27  22 23 28  22 27 28  23 24 29  23 28 29  25 26 31  25 30 31  26 27 32  26 31 32  27 28 33  27 32 33  28 29 34  28 33 34  30 31 36  30 35 36  31 32 37  31 36 37  32 33 38  32 37 38  33 34 39  33 38 39  35 36 41  35 40 41  36 37 42  36 41 42  37 38 43  37 42 43  38 39 44  38 43 44  40 41 46  40 45 46  41 42 47  41 46 47  42 43 48  42 47 48  43 44 49  43 48 49  45 46 51  45 50 51  46 47 52  46 51 52  47 48 53  47 52 53  48 49 54  48 53 54  50 51 56  50 55 56  51 52 57  51 56 57  52 53 58  52 57 58  53 54 59  53 58 59  55 56 61  55 60 61  56 57 62  56 61 62  57 58 63  57 62 63  58 59 64  58 63 64  60 61 66  60 65 66  61 62 67  61 66 67  62 63 68  62 67 68  63 64 69  63 68 69  65 66 71  65 70 71  66 67 72  66 71 72  67 68 73  67 72 73  68 69 74  68 73 74  70 71 76  70 75 76  71 72 77  71 76 77  72 73 78  72 77 78  73 74 79  73 78 79  75 76 81  75 80 81  76 77 82  76 81 82  77 78 83  77 82 83  78 79 84  78 83 84  80 81 86  80 85 86  81 82 87  81 86 87  82 83 88  82 87 88  83 84 89  83 88 89  85 86 91  85 90 91  86 87 92  86 91 92  87 88 93  87 92 93  88 89 94  88 93 94  90 91 96  90 95 96  91 92 97  91 96 97  92 93 98  92 97 98  93 94 99  93 98 99  95 96 101  95 100 101  96 97 102  96 101 102  97 98 103  97 102 103  98 99 104  98 103 104  100 101 106  100 105 106  101 102 107  101 106 107  102 103 108  102 107 108  103 104 109  103 108 109  105 106 111  105 110 111  106 107 112  106 111 112  107 108 113  107 112 113  108 109 114  108 113 114  110 111 116  110 115 116  111 112 117  111 116 117  112 113 118  112 117 118  113 114 119  113 118 119  115 116 121  115 120 121  116 117 122  116 121 122  117 118 123  117 122 123  118 119 124  118 123 124  120 121 126  120 125 126  121 122 127  121 126 127  122 123 128  122 127 128  123 124 129  123 128 129  125 126 131  125 130 131  126 127 132  126 131 132  127 128 133  127 132 133  128 129 134  128 133 134  </DataArray>
<DataArray  type="UInt32"  Name="offsets"  format="ascii">3 6 9 12 15 18 21 24 27 30 33 36 39 42 45 48 51 54 57 60 63 66 69 72 75 78 81 84 87 90 93 96 99 102 105 108 111 114 117 120 123 126 129 132 135 138 141 144 147 150 153 156 159 162 165 168 171 174 177 180 183 186 189 192 195 198 201 204 207 210 213 216 219 222 225 228 231 234 237 240 243 246 249 252 255 258 261 264 267 270 273 276 279 282 285 288 291 294 297 300 303 306 309 312 315 318 321 324 327 330 333 336 339 342 345 348 351 354 357 360 363 366 369 372 375 378 381 384 387 390 393 396 399 402 405 408 411 414 417 420 423 426 429 432 435 438 441 444 447 450 453 456 459 462 465 468 471 474 477 480 483 486 489 492 495 498 501 504 507 510 513 516 519 522 525 528 531 534 537 540 543 546 549 552 555 558 561 564 567 570 573 576 579 582 585 588 591 594 597 600 603 606 609 612 615 618 621 624 </DataArray>
<DataArray  type="UInt8"  Name="types"  format="ascii">5 5 5 5 5 5 5 5 5 5 5 5 5 5 5 5 5 5 5 5 5 5 5 5 5 5 5 5 5 5 5 5 5 5 5 5 5 5 5 5 5 5 5 5 5 5 5 5 5 5 5 5 5 5 5 5 5 5 5 5 5 5 5 5 5 5 5 5 5 5 5 5 5 5 5 5 5 5 5 5 5 5 5 5 5 5 5 5 5 5 5 5 5 5 5 5 5 5 5 5 5 5 5 5 5 5 5 5 5 5 5 5 5 5 5 5 5 5 5 5 5 5 5 5 5 5 5 5 5 5 5 5 5 5 5 5 5 5 5 5 5 5 5 5 5 5 5 5 5 5 5 5 5 5 5 5 5 5 5 5 5 5 5 5 5 5 5 5 5 5 5 5 5 5 5 5 5 5 5 5 5 5 5 5 5 5 5 5 5 5 5 5 5 5 5 5 5 5 5 5 5 5 5 5 5 5 5 5 </DataArray>
</Cells>
<PointData  Vectors="Displacement"> 
<DataArray  type="Float64"  Name="Displacement"  NumberOfComponents="3" format="ascii">-4.5128208999297098e-16 4.4237519525758917e-18 0.0000000000000000e+00  0.0000000000000000e+00 0.0000000000000000e+00 0.0000000000000000e+00  0.0000000000000000e+00 0.0000000000000000e+00 0.0000000000000000e+00  -5.5164605973737813e-17 9.5729162806340030e-19 0.0000000000000000e+00  1.6549381792121344e-16 -2.8718748841902013e-18 0.0000000000000000e+00  2.3262155278185755e-04 3.7165600516642907e-04 0.0000000000000000e+00  1.5041333209969809e-04 1.8474208665854574e-04 0.0000000000000000e+00  1.1869485603153000e-04 8.5453508550185768e-06 0.0000000000000000e+00  1.4141876984321953e-04 -1.6656727165333520e-04 0.0000000000000000e+00  2.1891680422869844e-04 -3.5752982785736316e-04 0.0000000000000000e+00  6.6006482124358109e-04 7.4147388744204474e-04 0.0000000000000000e+00  5.8237097930546823e-04 3.7580926061528018e-04 0.0000000000000000e+00  5.5561865046352920e-04 1.7771764699186632e-05 0.0000000000000000e+00  5.7820327754558721e-04 -3.4131037722027389e-04 0.0000000000000000e+00  6.5020682599435718e-04 -7.0841372741869675e-04 0.0000000000000000e+00  1.3730034152421352e-03 1.1020125030352264e-03 0.0000000000000000e+00  1.2991956280918539e-03 5.5853148260459162e-04 0.0000000000000000e+00  1.2735019780117020e-03 2.6757055789448068e-05 0.0000000000000000e+00  1.2950761018051154e-03 -5.0540650284700527e-04 0.0000000000000000e+00  1.3632290937556756e-03 -1.0490318201417780e-03 0.0000000000000000e+00  2.3553590821705785e-03 1.4405183401314148e-03 0.0000000000000000e+00  2.2865624072093871e-03 7.3096101922601479e-04 0.0000000000000000e+00  2.2625135222235303e-03 3.6112072206204580e-05 0.0000000000000000e+00  2.2813823555394562e-03 -6.5820684224100312e-04 0.0000000000000000e+00  2.3435648371393850e-03 -1.3666502997471063e-03 0.0000000000000000e+00  3.5829928530865173e-03 1.7504928793556341e-03 0.0000000000000000e+00  3.5217287298552145e-03 8.8972054095426151e-04 0.0000000000000000e+00  3.4991336079627454e-03 4.6009646202010453e-05 0.0000000000000000e+00  3.5155400583386917e-03 -7.9638753630218589e-04 0.0000000000000000e+00  3.5715639955494474e-03 -1.6566144871309550e-03 0.0000000000000000e+00  5.0344573520536605e-03 2.0259907625811541e-03 0.0000000000000000e+00  4.9789362552284744e-03 1.0324282023787574e-03 0.0000000000000000e+00  4.9582806393776531e-03 5.6551115287282218e-05 0.0000000000000000e+00  4.9721317267578695e-03 -9.1945251419710175e-04 0.0000000000000000e+00  5.0216532570706678e-03 -1.9126290962678881e-03 0.0000000000000000e+00  6.6744604248212972e-03 2.2667073287576806e-03 0.0000000000000000e+00  6.6271440864308145e-03 1.1580105043628812e-03 0.0000000000000000e+00  6.6093469862866993e-03 6.7359280565673616e-05 0.0000000000000000e+00  6.6208749755803610e-03 -1.0241851898605660e-03 0.0000000000000000e+00  6.6620751223978834e-03 -2.1337313678583573e-03 0.0000000000000000e+00  8.4818566759207580e-03 2.4745826385626250e-03 0.0000000000000000e+00  8.4401386132328983e-03 1.2677680672807284e-03 0.0000000000000000e+00  8.4245229017946444e-03 7.7869980475825268e-05 0.0000000000000000e+00  8.4342303159264439e-03 -1.1119948248339536e-03 0.0000000000000000e+00  8.4695047037794888e-03 -2.3193498215665158e-03 0.0000000000000000e+00  1.0424001576662584e-02 2.6502397122173497e-03 0.0000000000000000e+00  1.0390041771771724e-02 1.3608525487793042e-03 0.0000000000000000e+00  1.0377088910451760e-02 8.8876432561913257e-05 0.0000000000000000e+00  1.0384464697415994e-02 -1.1830652802777464e-03 0.0000000000000000e+00  1.0412273935654115e-02 -2.4719817173894532e-03 0.0000000000000000e+00  1.2481264228418805e-02 2.7929021926968735e-03 0.0000000000000000e+00  1.2454181565404914e-02 1.4378505026970492e-03 0.0000000000000000e+00  1.2443224216382189e-02 9.9722203931517715e-05 0.0000000000000000e+00  1.2448369046373879e-02 -1.2373923211445681e-03 0.0000000000000000e+00  1.2469407746199604e-02 -2.5916108506128881e-03 0.0000000000000000e+00  1.4626354354269195e-02 2.9004999226389071e-03 0.0000000000000000e+00  1.4605357030579471e-02 1.4975034497237832e-03 0.0000000000000000e+00  1.4595843467367751e-02 1.1053396862968534e-04 0.0000000000000000e+00  1.4598274905540993e-02 -1.2755519275868101e-03 0.0000000000000000e+00  1.4612927702217768e-02 -2.6770766304863012e-03 0.0000000000000000e+00  1.6826035836583889e-02 2.9756849421994618e-03 0.0000000000000000e+00  1.6812155888534630e-02 1.5423723641835362e-03 0.0000000000000000e+00  1.6804846623316667e-02 1.2194642167333007e-04 0.0000000000000000e+00  1.6805402346934065e-02 -1.2988494618574123e-03 0.0000000000000000e+00  1.6813649075323473e-02 -2.7327473937358037e-03 0.0000000000000000e+00  1.9063978418253719e-02 3.0272662221468224e-03 0.0000000000000000e+00  1.9052353823338287e-02 1.5747879066540854e-03 0.0000000000000000e+00  1.9046447641696610e-02 1.3246613301029194e-04 0.0000000000000000e+00  1.9045860662192615e-02 -1.3103556512174804e-03 0.0000000000000000e+00  1.9050444084333970e-02 -2.7631625631171445e-03 0.0000000000000000e+00  2.1316808081938411e-02 3.0610626611978233e-03 0.0000000000000000e+00  2.1311124116031328e-02 1.5973287288165150e-03 0.0000000000000000e+00  2.1307577584847762e-02 1.4266273021601103e-04 0.0000000000000000e+00  2.1305945931760988e-02 -1.3123116715292274e-03 0.0000000000000000e+00  2.1306384352607306e-02 -2.7772711206760824e-03 0.0000000000000000e+00  2.3586447250846753e-02 3.0782528129529286e-03 0.0000000000000000e+00  2.3583140281182725e-02 1.6106921977545711e-03 0.0000000000000000e+00  2.3580536929425262e-02 1.5247431378655635e-04 0.0000000000000000e+00  2.3578520943079734e-02 -1.3060467441219348e-03 0.0000000000000000e+00  2.3576165244574277e-02 -2.7740199108723979e-03 0.0000000000000000e+00  2.5849715082737385e-02 3.0756936815419253e-03 0.0000000000000000e+00  2.5850664952102941e-02 1.6149043735164293e-03 0.0000000000000000e+00  2.5849676854931551e-02 1.6135731675035947e-04 0.0000000000000000e+00  2.5846306338539043e-02 -1.2923662141615174e-03 0.0000000000000000e+00  2.5840324577066594e-02 -2.7522095042562819e-03 0.0000000000000000e+00  2.8093021274260801e-02 3.0584022926672966e-03 0.0000000000000000e+00  2.8096011319572355e-02 1.6119615161598615e-03 0.0000000000000000e+00  2.8095110916027434e-02 1.6931259363467667e-04 0.0000000000000000e+00  2.8090949349184224e-02 -1.2722258334645113e-03 0.0000000000000000e+00  2.8083006026591934e-02 -2.7178607029175565e-03 0.0000000000000000e+00  3.0307129226985505e-02 3.0343083837360146e-03 0.0000000000000000e+00  3.0309996030570458e-02 1.6053632470133094e-03 0.0000000000000000e+00  3.0309226897537383e-02 1.7731732858984486e-04 0.0000000000000000e+00  3.0305044671026377e-02 -1.2503760412041385e-03 0.0000000000000000e+00  3.0297220921315485e-02 -2.6784820589993109e-03 0.0000000000000000e+00  3.2487936166181390e-02 3.0090451274914433e-03 0.0000000000000000e+00  3.2491968929561681e-02 1.5979131379051164e-03 0.0000000000000000e+00  3.2491737125880646e-02 1.8497389645685591e-04 0.0000000000000000e+00  3.2487889242527858e-02 -1.2285628222014709e-03 0.0000000000000000e+00  3.2479911925322701e-02 -2.6406545128634645e-03 0.0000000000000000e+00  3.4647778626319632e-02 2.9900804821260045e-03 0.0000000000000000e+00  3.4649127433177822e-02 1.5919693811214919e-03 0.0000000000000000e+00  3.4648848380353675e-02 1.9146453588168730e-04 0.0000000000000000e+00  3.4645847340879055e-02 -1.2093623852489077e-03 0.0000000000000000e+00  3.4639748069018331e-02 -2.6072339528189674e-03 0.0000000000000000e+00  3.6784391092750703e-02 2.9751683127219384e-03 0.0000000000000000e+00  3.6786411184089318e-02 1.5875849366581694e-03 0.0000000000000000e+00  3.6786483589542021e-02 1.9760247324914396e-04 0.0000000000000000e+00  3.6783760823586496e-02 -1.1925201204099670e-03 0.0000000000000000e+00  3.6778148011653154e-02 -2.5799399679309149e-03 0.0000000000000000e+00  3.8910370079330153e-02 2.9669347507512611e-03 0.0000000000000000e+00  3.8910183128658120e-02 1.5861793327042277e-03 0.0000000000000000e+00  3.8909384280434681e-02 2.0294427051818331e-04 0.0000000000000000e+00  3.8907689274699515e-02 -1.1791499933169998e-03 0.0000000000000000e+00  3.8904420319482172e-02 -2.5585905928762250e-03 0.0000000000000000e+00  4.1027047228140365e-02 2.9631918000757283e-03 0.0000000000000000e+00  4.1026113094742203e-02 1.5860042527866755e-03 0.0000000000000000e+00  4.1025525464631500e-02 2.0792165434380651e-04 0.0000000000000000e+00  4.1023995761557117e-02 -1.1694982696385694e-03 0.0000000000000000e+00  4.1021856356878300e-02 -2.5445811213508072e-03 0.0000000000000000e+00  4.3139640077446126e-02 2.9622618804836338e-03 0.0000000000000000e+00  4.3138519922765066e-02 1.5875922077281388e-03 0.0000000000000000e+00  4.3137138669445942e-02 2.1200550389995556e-04 0.0000000000000000e+00  4.3135601434467083e-02 -1.1627200556419001e-03 0.0000000000000000e+00  4.3134316866288755e-02 -2.5361036286122591e-03 0.0000000000000000e+00  4.5254012416840642e-02 2.9659471412877589e-03 0.0000000000000000e+00  4.5250341278748087e-02 1.5896236214874521e-03 0.0000000000000000e+00  4.5248923577654317e-02 2.1523707538917479e-04 0.0000000000000000e+00  4.5248657125384957e-02 -1.1585130869748051e-03 0.0000000000000000e+00  4.5249862228501109e-02 -2.5317099165628968e-03 0.0000000000000000e+00  4.7368307001150987e-02 2.9685623184798828e-03 0.0000000000000000e+00  4.7366812924428472e-02 1.5931209211679307e-03 0.0000000000000000e+00  4.7365078857404520e-02 2.1826876214573046e-04 0.0000000000000000e+00  4.7363869939355853e-02 -1.1560134021286529e-03 0.0000000000000000e+00  4.7364022162785950e-02 -2.5310496018137300e-03 0.0000000000000000e+00  </DataArray> 
</PointData> 
</Piece>
</UnstructuredGrid>
</VTKFile>