<?xml version="1.0"?>
<VTKFile type="UnstructuredGrid"  version="0.1"  >
<UnstructuredGrid>
<Piece  NumberOfPoints="135" NumberOfCells="208">
<Points>
<DataArray  type="Float64"  NumberOfComponents="3"  format="ascii">-0.05 0 0  -0.025 0 0  0 0 0  0.02500000000000001 0 0  0.05 0 0  -0.05 0.03846153846153846 0  -0.025 0.03846153846153846 0  0 0.03846153846153846 0  0.02500000000000001 0.03846153846153846 0  0.05 0.03846153846153846 0  -0.05 0.07692307692307693 0  -0.025 0.07692307692307693 0  0 0.07692307692307693 0  0.02500000000000001 0.07692307692307693 0  0.05 0.07692307692307693 0  -0.05 0.1153846153846154 0  -0.025 0.1153846153846154 0  0 0.1153846153846154 0  0.02500000000000001 0.1153846153846154 0  0.05 0.1153846153846154 0  -0.05 0.1538461538461539 0  -0.025 0.1538461538461539 0  0 0.1538461538461539 0  0.02500000000000001 0.1538461538461539 0  0.05 0.1538461538461539 0  -0.05 0.1923076923076923 0  -0.025 0.1923076923076923 0  0 0.1923076923076923 0  0.02500000000000001 0.1923076923076923 0  0.05 0.1923076923076923 0  -0.05 0.2307692307692308 0  -0.025 0.2307692307692308 0  0 0.2307692307692308 0  0.02500000000000001 0.2307692307692308 0  0.05 0.2307692307692308 0  -0.05 0.2692307692307692 0  -0.025 0.2692307692307692 0  0 0.2692307692307692 0  0.02500000000000001 0.2692307692307692 0  0.05 0.2692307692307692 0  -0.05 0.3076923076923077 0  -0.025 0.3076923076923077 0  0 0.3076923076923077 0  0.02500000000000001 0.3076923076923077 0  0.05 0.3076923076923077 0  -0.05 0.3461538461538461 0  -0.025 0.3461538461538461 0  0 0.3461538461538461 0  0.02500000000000001 0.3461538461538461 0  0.05 0.3461538461538461 0  -0.05 0.3846153846153846 0  -0.025 0.3846153846153846 0  0 0.3846153846153846 0  0.02500000000000001 0.3846153846153846 0  0.05 0.3846153846153846 0  -0.05 0.4230769230769231 0  -0.025 0.4230769230769231 0  0 0.4230769230769231 0  0.02500000000000001 0.4230769230769231 0  0.05 0.4230769230769231 0  -0.05 0.4615384615384616 0  -0.025 0.4615384615384616 0  0 0.4615384615384616 0  0.02500000000000001 0.4615384615384616 0  0.05 0.4615384615384616 0  -0.05 0.5 0  -0.025 0.5 0  0 0.5 0  0.02500000000000001 0.5 0  0.05 0.5 0  -0.05 0.5384615384615384 0  -0.025 0.5384615384615384 0  0 0.5384615384615384 0  0.02500000000000001 0.5384615384615384 0  0.05 0.5384615384615384 0  -0.05 0.5769230769230769 0  -0.025 0.5769230769230769 0  0 0.5769230769230769 0  0.02500000000000001 0.5769230769230769 0  0.05 0.5769230769230769 0  -0.05 0.6153846153846154 0  -0.025 0.6153846153846154 0  0 0.6153846153846154 0  0.02500000000000001 0.6153846153846154 0  0.05 0.6153846153846154 0  -0.05 0.6538461538461539 0  -0.025 0.6538461538461539 0  0 0.6538461538461539 0  0.02500000000000001 0.6538461538461539 0  0.05 0.6538461538461539 0  -0.05 0.6923076923076923 0  -0.025 0.6923076923076923 0  0 0.6923076923076923 0  0.02500000000000001 0.6923076923076923 0  0.05 0.6923076923076923 0  -0.05 0.7307692307692307 0  -0.025 0.7307692307692307 0  0 0.7307692307692307 0  0.02500000000000001 0.7307692307692307 0  0.05 0.7307692307692307 0  -0.05 0.7692307692307693 0  -0.025 0.7692307692307693 0  0 0.7692307692307693 0  0.02500000000000001 0.7692307692307693 0  0.05 0.7692307692307693 0  -0.05 0.8076923076923077 0  -0.025 0.8076923076923077 0  0 0.8076923076923077 0  0.02500000000000001 0.8076923076923077 0  0.05 0.8076923076923077 0  -0.05 0.8461538461538461 0  -0.025 0.8461538461538461 0  0 0.8461538461538461 0  0.02500000000000001 0.8461538461538461 0  0.05 0.8461538461538461 0  -0.05 0.8846153846153846 0  -0.025 0.8846153846153846 0  0 0.8846153846153846 0  0.02500000000000001 0.8846153846153846 0  0.05 0.8846153846153846 0  -0.05 0.9230769230769231 0  -0.025 0.9230769230769231 0  0 0.9230769230769231 0  0.02500000000000001 0.9230769230769231 0  0.05 0.9230769230769231 0  -0.05 0.9615384615384616 0  -0.025 0.9615384615384616 0  0 0.9615384615384616 0  0.02500000000000001 0.9615384615384616 0  0.05 0.9615384615384616 0  -0.05 1 0  -0.025 1 0  0 1 0  0.02500000000000001 1 0  0.05 1 0  </DataArray>
</Points>
<Cells>
<DataArray  type="UInt32"  Name="connectivity"  format="ascii">0 1 6  0 5 6  1 2 7  1 6 7  2 3 8  2 7 8  3 4 9  3 8 9  5 6 11  5 10 11  6 7 12  6 11 12  7 8 13  7 12 13  8 9 14  8 13 14  10 11 16  10 15 16  11 12 17  11 16 17  12 13 18  12 17 18  13 14 19  13 18 19  15 16 21  15 20 21  16 17 22  16 21 22  17 18 23  17 22 23  18 19 24  18 23 24  20 21 26  20 25 26  21 22 27  21 26 27  22 23 28  22 27 28  23 24 29  23 28 29  25 26 31  25 30 31  26 27 32  26 31 32  27 28 33  27 32 33  28 29 34  28 33 34  30 31 36  30 35 36  31 32 37  31 36 37  32 33 38  32 37 38  33 34 39  33 38 39  35 36 41  35 40 41  36 37 42  36 41 42  37 38 43  37 42 43  38 39 44  38 43 44  40 41 46  40 45 46  41 42 47  41 46 47  42 43 48  42 47 48  43 44 49  43 48 49  45 46 51  45 50 51  46 47 52  46 51 52  47 48 53  47 52 53  48 49 54  48 53 54  50 51 56  50 55 56  51 52 57  51 56 57  52 53 58  52 57 58  53 54 59  53 58 59  55 56 61  55 60 61  56 57 62  56 61 62  57 58 63  57 62 63  58 59 64  58 63 64  60 61 66  60 65 66  61 62 67  61 66 67  62 63 68  62 67 68  63 64 69  63 68 69  65 66 71  65 70 71  66 67 72  66 71 72  67 68 73  67 72 73  68 69 74  68 73 74  70 71 76  70 75 76  71 72 77  71 76 77  72 73 78  72 77 78  73 74 79  73 78 79  75 76 81  75 80 81  76 77 82  76 81 82  77 78 83  77 82 83  78 79 84  78 83 84  80 81 86  80 85 86  81 82 87  81 86 87  82 83 88  82 87 88  83 84 89  83 88 89  85 86 91  85 90 91  86 87 92  86 91 92  87 88 93  87 92 93  88 89 94  88 93 94  90 91 96  90 95 96  91 92 97  91 96 97  92 93 98  92 97 98  93 94 99  93 98 99  95 96 101  95 100 101  96 97 102  96 101 102  97 98 103  97 102 103  98 99 104  98 103 104  100 101 106  100 105 106  101 102 107  101 106 107  102 103 108  102 107 108  103 104 109  103 108 109  105 106 111  105 110 111  106 107 112  106 111 112  107 108 113  107 112 113  108 109 114  108 113 114  110 111 116  110 115 116  111 112 117  111 116 117  112 113 118  112 117 118  113 114 119  113 118 119  115 116 121  115 120 121  116 117 122  116 121 122  117 118 123  117 122 123  118 119 124  118 123 124  120 121 126  120 125 126  121 122 127  121 126 127  122 123 128  122 127 128  123 124 129  123 128 129  125 126 131  125 130 131  126 127 132  126 131 132  127 128 133  127 132 133  128 129 134  128 133 134  </DataArray>
<DataArray  type="UInt32"  Name="offsets"  format="ascii">3 6 9 12 15 18 21 24 27 30 33 36 39 42 45 48 51 54 57 60 63 66 69 72 75 78 81 84 87 90 93 96 99 102 105 108 111 114 117 120 123 126 129 132 135 138 141 144 147 150 153 156 159 162 165 168 171 174 177 180 183 186 189 192 195 198 201 204 207 210 213 216 219 222 225 228 231 234 237 240 243 246 249 252 255 258 261 264 267 270 273 276 279 282 285 288 291 294 297 300 303 306 309 312 315 318 321 324 327 330 333 336 339 342 345 348 351 354 357 360 363 366 369 372 375 378 381 384 387 390 393 396 399 402 405 408 411 414 417 420 423 426 429 432 435 438 441 444 447 450 453 456 459 462 465 468 471 474 477 480 483 486 489 492 495 498 501 504 507 510 513 516 519 522 525 528 531 534 537 540 543 546 549 552 555 558 561 564 567 570 573 576 579 582 585 588 591 594 597 600 603 606 609 612 615 618 621 624 </DataArray>
<DataArray  type="UInt8"  Name="types"  format="ascii">5 5 5 5 5 5 5 5 5 5 5 5 5 5 5 5 5 5 5 5 5 5 5 5 5 5 5 5 5 5 5 5 5 5 5 5 5 5 5 5 5 5 5 5 5 5 5 5 5 5 5 5 5 5 5 5 5 5 5 5 5 5 5 5 5 5 5 5 5 5 5 5 5 5 5 5 5 5 5 5 5 5 5 5 5 5 5 5 5 5 5 5 5 5 5 5 5 5 5 5 5 5 5 5 5 5 5 5 5 5 5 5 5 5 5 5 5 5 5 5 5 5 5 5 5 5 5 5 5 5 5 5 5 5 5 5 5 5 5 5 5 5 5 5 5 5 5 5 5 5 5 5 5 5 5 5 5 5 5 5 5 5 5 5 5 5 5 5 5 5 5 5 5 5 5 5 5 5 5 5 5 5 5 5 5 5 5 5 5 5 5 5 5 5 5 5 5 5 5 5 5 5 5 5 5 5 5 5 </DataArray>
</Cells>
<PointData  Vectors="Displacement"> 
<DataArray  type="Float64"  Name="Displacement"  NumberOfComponents="3" format="ascii">-4.4559419149948322e-16 2.4042495067052645e-18 0.0000000000000000e+00  0.0000000000000000e+00 0.0000000000000000e+00 0.0000000000000000e+00  0.0000000000000000e+00 0.0000000000000000e+00 0.0000000000000000e+00  -5.5526134769114137e-17 1.0840058610581382e-18 0.0000000000000000e+00  1.6657840430734241e-16 -3.2520175831744151e-18 0.0000000000000000e+00  1.1549909354636400e-04 2.3699641778056118e-04 0.0000000000000000e+00  5.7004229739908099e-05 1.2564458242436783e-04 0.0000000000000000e+00  3.3846808181421079e-05 7.3602852205725805e-06 0.0000000000000000e+00  4.9488426361777370e-05 -1.1031923522935361e-04 0.0000000000000000e+00  1.0250709032570216e-04 -2.2335965330133115e-04 0.0000000000000000e+00  3.7117012756896460e-04 5.0757663354260762e-04 0.0000000000000000e+00  3.1079467505522063e-04 2.6501112691079508e-04 0.0000000000000000e+00  2.8919370575965491e-04 1.5026644017031901e-05 0.0000000000000000e+00  3.0538999445118328e-04 -2.3569258909852039e-04 0.0000000000000000e+00  3.6035773787568048e-04 -4.7913163410198424e-04 0.0000000000000000e+00  8.4851607937368623e-04 7.9629544011904215e-04 0.0000000000000000e+00  7.8614529885924164e-04 4.1017219178881220e-04 0.0000000000000000e+00  7.6438706672667860e-04 2.1914073542901024e-05 0.0000000000000000e+00  7.8185822882499755e-04 -3.6705514665103824e-04 0.0000000000000000e+00  8.3982774494247632e-04 -7.5407279700620414e-04 0.0000000000000000e+00  1.5566960359689721e-03 1.0905134877145998e-03 0.0000000000000000e+00  1.4941238753689004e-03 5.5828657792124446e-04 0.0000000000000000e+00  1.4721392034229743e-03 2.9193844115185793e-05 0.0000000000000000e+00  1.4890821954364891e-03 -5.0073576555868424e-04 0.0000000000000000e+00  1.5463439934570063e-03 -1.0329571416143857e-03 0.0000000000000000e+00  2.4899480236907031e-03 1.3785789929651650e-03 0.0000000000000000e+00  2.4300177010171840e-03 7.0419965099722322e-04 0.0000000000000000e+00  2.4087972484575534e-03 3.6584355038376561e-05 0.0000000000000000e+00  2.4258868874137041e-03 -6.3141131311166476e-04 0.0000000000000000e+00  2.4819846895626132e-03 -1.3063389044149617e-03 0.0000000000000000e+00  3.6444493036998597e-03 1.6533961864265573e-03 0.0000000000000000e+00  3.5868216294615146e-03 8.4357817218183855e-04 0.0000000000000000e+00  3.5666870553012300e-03 4.3104092441128895e-05 0.0000000000000000e+00  3.5828328724466655e-03 -7.5692216548078146e-04 0.0000000000000000e+00  3.6356607681253626e-03 -1.5656099565420183e-03 0.0000000000000000e+00  4.9980598847790729e-03 1.9096465636252149e-03 0.0000000000000000e+00  4.9452886770968369e-03 9.7462710998278117e-04 0.0000000000000000e+00  4.9257343349503871e-03 5.0270550543444869e-05 0.0000000000000000e+00  4.9400470247261130e-03 -8.7341807962467062e-04 0.0000000000000000e+00  4.9887180472089065e-03 -1.8071341916170026e-03 0.0000000000000000e+00  6.5391431112087287e-03 2.1449319553600143e-03 0.0000000000000000e+00  6.4898105672519871e-03 1.0961656058733771e-03 0.0000000000000000e+00  6.4718146582925335e-03 5.8288324433478084e-05 0.0000000000000000e+00  6.4847712095174705e-03 -9.8020123825645232e-04 0.0000000000000000e+00  6.5294580134405205e-03 -2.0296990774476605e-03 0.0000000000000000e+00  8.2472336790431235e-03 2.3590094706412855e-03 0.0000000000000000e+00  8.2037542376284626e-03 1.2061926026259357e-03 0.0000000000000000e+00  8.1883037586767907e-03 6.5217473258916969e-05 0.0000000000000000e+00  8.2002952109587000e-03 -1.0756418200960312e-03 0.0000000000000000e+00  8.2396750425881311e-03 -2.2284285064211149e-03 0.0000000000000000e+00  1.0108969716924264e-02 2.5476317321620401e-03 0.0000000000000000e+00  1.0071138513077041e-02 1.3027891154898945e-03 0.0000000000000000e+00  1.0057254610003639e-02 7.1983858409482946e-05 0.0000000000000000e+00  1.0067131149326338e-02 -1.1585075198084140e-03 0.0000000000000000e+00  1.0101328299002526e-02 -2.4019936799600842e-03 0.0000000000000000e+00  1.2101362942494200e-02 2.7074892294777146e-03 0.0000000000000000e+00  1.2068026913058220e-02 1.3873040957224757e-03 0.0000000000000000e+00  1.2055187347796861e-02 7.9653838229271236e-05 0.0000000000000000e+00  1.2063099782368069e-02 -1.2282003510953932e-03 0.0000000000000000e+00  1.2091744387768303e-02 -2.5486127544035579e-03 0.0000000000000000e+00  1.4194291963308354e-02 2.8429182509569460e-03 0.0000000000000000e+00  1.4166802151906598e-02 1.4592934549155158e-03 0.0000000000000000e+00  1.4156592033344762e-02 8.6326601721820184e-05 0.0000000000000000e+00  1.4164062852130684e-02 -1.2865481533691433e-03 0.0000000000000000e+00  1.4188468613989052e-02 -2.6701239050722354e-03 0.0000000000000000e+00  1.6379261914414127e-02 2.9582471672298864e-03 0.0000000000000000e+00  1.6354467907977299e-02 1.5204972743369162e-03 0.0000000000000000e+00  1.6345004794189523e-02 9.2420936431771941e-05 0.0000000000000000e+00  1.6350511702693658e-02 -1.3356404963461659e-03 0.0000000000000000e+00  1.6371000549374813e-02 -2.7719454817720754e-03 0.0000000000000000e+00  1.8636719002172068e-02 3.0557284766263488e-03 0.0000000000000000e+00  1.8616898687828561e-02 1.5727101825810728e-03 0.0000000000000000e+00  1.8608615267950847e-02 9.9435810957339420e-05 0.0000000000000000e+00  1.8612011832964410e-02 -1.3743617321186196e-03 0.0000000000000000e+00  1.8628031185001021e-02 -2.8578096086060980e-03 0.0000000000000000e+00  2.0961415037985223e-02 3.1350359973371564e-03 0.0000000000000000e+00  2.0944925826245860e-02 1.6149718019752273e-03 0.0000000000000000e+00  2.0938590857195044e-02 1.0584641168067145e-04 0.0000000000000000e+00  2.0941867925461710e-02 -1.4039521860365280e-03 0.0000000000000000e+00  2.0954648855492496e-02 -2.9243284801617315e-03 0.0000000000000000e+00  2.3333303836221210e-02 3.1939055197036724e-03 0.0000000000000000e+00  2.3320866138243430e-02 1.6479701565372993e-03 0.0000000000000000e+00  2.3315275154856718e-02 1.1155927722184606e-04 0.0000000000000000e+00  2.3316930540951096e-02 -1.4247554321375842e-03 0.0000000000000000e+00  2.3325310884437279e-02 -2.9695475175421644e-03 0.0000000000000000e+00  2.5733461235056498e-02 3.2335354721605728e-03 0.0000000000000000e+00  2.5724683904645947e-02 1.6720299068806270e-03 0.0000000000000000e+00  2.5720237946966991e-02 1.1762887715967888e-04 0.0000000000000000e+00  2.5720620119874447e-02 -1.4365595181213429e-03 0.0000000000000000e+00  2.5725874804207072e-02 -2.9976714291994246e-03 0.0000000000000000e+00  2.8150513120986136e-02 3.2592354565364181e-03 0.0000000000000000e+00  2.8143728417168466e-02 1.6885328451474006e-03 0.0000000000000000e+00  2.8140635318206892e-02 1.2299011641397274e-04 0.0000000000000000e+00  2.8141019419974295e-02 -1.4423368260543144e-03 0.0000000000000000e+00  2.8144244534188498e-02 -3.0126578791308542e-03 0.0000000000000000e+00  3.0574241499419504e-02 3.2745858884985221e-03 0.0000000000000000e+00  3.0570904018260077e-02 1.6984977143897726e-03 0.0000000000000000e+00  3.0568945009886935e-02 1.2704223297989875e-04 0.0000000000000000e+00  3.0568211534772679e-02 -1.4438878212906011e-03 0.0000000000000000e+00  3.0569294042499001e-02 -3.0184887001914328e-03 0.0000000000000000e+00  3.3006674907531841e-02 3.2821311895653901e-03 0.0000000000000000e+00  3.3003023795276032e-02 1.7045103414197410e-03 0.0000000000000000e+00  3.3000673021997690e-02 1.3150390076919889e-04 0.0000000000000000e+00  3.2999675489669790e-02 -1.4415489008441492e-03 0.0000000000000000e+00  3.3000144636370125e-02 -3.0183012271851983e-03 0.0000000000000000e+00  3.5432277590270039e-02 3.2835714142829975e-03 0.0000000000000000e+00  3.5430475844461906e-02 1.7087441886328917e-03 0.0000000000000000e+00  3.5429016118869630e-02 1.3552373430870157e-04 0.0000000000000000e+00  3.5428421642820798e-02 -1.4378105556243340e-03 0.0000000000000000e+00  3.5428017487755384e-02 -3.0125938677053694e-03 0.0000000000000000e+00  3.7854171998095515e-02 3.2836414836849340e-03 0.0000000000000000e+00  3.7852141715724062e-02 1.7103589984033569e-03 0.0000000000000000e+00  3.7851451025136561e-02 1.3826557812147519e-04 0.0000000000000000e+00  3.7851189209996208e-02 -1.4334183737949532e-03 0.0000000000000000e+00  3.7851020234726071e-02 -3.0053333468171169e-03 0.0000000000000000e+00  4.0271780083958209e-02 3.2840999934833546e-03 0.0000000000000000e+00  4.0269643099359598e-02 1.7118037828932995e-03 0.0000000000000000e+00  4.0268484513076790e-02 1.4069400233987552e-04 0.0000000000000000e+00  4.0267578505037621e-02 -1.4298995765106349e-03 0.0000000000000000e+00  4.0267470816628168e-02 -2.9993690938505358e-03 0.0000000000000000e+00  4.2685819748466192e-02 3.2835146445101206e-03 0.0000000000000000e+00  4.2684515387625965e-02 1.7128769497464910e-03 0.0000000000000000e+00  4.2683559038653153e-02 1.4317093352667035e-04 0.0000000000000000e+00  4.2682257111316631e-02 -1.4262178006123059e-03 0.0000000000000000e+00  4.2682020546868461e-02 -2.9954356222549948e-03 0.0000000000000000e+00  4.5102302874199279e-02 3.2856736658360753e-03 0.0000000000000000e+00  4.5098718733650157e-02 1.7141301244427980e-03 0.0000000000000000e+00  4.5097456069205948e-02 1.4479244000168245e-04 0.0000000000000000e+00  4.5097107797496337e-02 -1.4237481380498251e-03 0.0000000000000000e+00  4.5098544102270890e-02 -2.9922951303519379e-03 0.0000000000000000e+00  4.7517310766907662e-02 3.2887010645188367e-03 0.0000000000000000e+00  4.7515070248426626e-02 1.7174824148938287e-03 0.0000000000000000e+00  4.7512923777050069e-02 1.4715696187004158e-04 0.0000000000000000e+00  4.7511641603980727e-02 -1.4218674636593421e-03 0.0000000000000000e+00  4.7510962533741388e-02 -2.9906406166565302e-03 0.0000000000000000e+00  </DataArray> 
</PointData> 
</Piece>
</UnstructuredGrid>
</VTKFile>