<?xml version="1.0"?>
<VTKFile type="UnstructuredGrid"  version="0.1"  >
<UnstructuredGrid>
<Piece  NumberOfPoints="135" NumberOfCells="208">
<Points>
<DataArray  type="Float64"  NumberOfComponents="3"  format="ascii">-0.05 0 0  -0.025 0 0  0 0 0  0.02500000000000001 0 0  0.05 0 0  -0.05 0.03846153846153846 0  -0.025 0.03846153846153846 0  0 0.03846153846153846 0  0.02500000000000001 0.03846153846153846 0  0.05 0.03846153846153846 0  -0.05 0.07692307692307693 0  -0.025 0.07692307692307693 0  0 0.07692307692307693 0  0.02500000000000001 0.07692307692307693 0  0.05 0.07692307692307693 0  -0.05 0.1153846153846154 0  -0.025 0.1153846153846154 0  0 0.1153846153846154 0  0.02500000000000001 0.1153846153846154 0  0.05 0.1153846153846154 0  -0.05 0.1538461538461539 0  -0.025 0.1538461538461539 0  0 0.1538461538461539 0  0.02500000000000001 0.1538461538461539 0  0.05 0.1538461538461539 0  -0.05 0.1923076923076923 0  -0.025 0.1923076923076923 0  0 0.1923076923076923 0  0.02500000000000001 0.1923076923076923 0  0.05 0.1923076923076923 0  -0.05 0.2307692307692308 0  -0.025 0.2307692307692308 0  0 0.2307692307692308 0  0.02500000000000001 0.2307692307692308 0  0.05 0.2307692307692308 0  -0.05 0.2692307692307692 0  -0.025 0.2692307692307692 0  0 0.2692307692307692 0  0.02500000000000001 0.2692307692307692 0  0.05 0.2692307692307692 0  -0.05 0.3076923076923077 0  -0.025 0.3076923076923077 0  0 0.3076923076923077 0  0.02500000000000001 0.3076923076923077 0  0.05 0.3076923076923077 0  -0.05 0.3461538461538461 0  -0.025 0.3461538461538461 0  0 0.3461538461538461 0  0.02500000000000001 0.3461538461538461 0  0.05 0.3461538461538461 0  -0.05 0.3846153846153846 0  -0.025 0.3846153846153846 0  0 0.3846153846153846 0  0.02500000000000001 0.3846153846153846 0  0.05 0.3846153846153846 0  -0.05 0.4230769230769231 0  -0.025 0.4230769230769231 0  0 0.4230769230769231 0  0.02500000000000001 0.4230769230769231 0  0.05 0.4230769230769231 0  -0.05 0.4615384615384616 0  -0.025 0.4615384615384616 0  0 0.4615384615384616 0  0.02500000000000001 0.4615384615384616 0  0.05 0.4615384615384616 0  -0.05 0.5 0  -0.025 0.5 0  0 0.5 0  0.02500000000000001 0.5 0  0.05 0.5 0  -0.05 0.5384615384615384 0  -0.025 0.5384615384615384 0  0 0.5384615384615384 0  0.02500000000000001 0.5384615384615384 0  0.05 0.5384615384615384 0  -0.05 0.5769230769230769 0  -0.025 0.5769230769230769 0  0 0.5769230769230769 0  0.02500000000000001 0.5769230769230769 0  0.05 0.5769230769230769 0  -0.05 0.6153846153846154 0  -0.025 0.6153846153846154 0  0 0.6153846153846154 0  0.02500000000000001 0.6153846153846154 0  0.05 0.6153846153846154 0  -0.05 0.6538461538461539 0  -0.025 0.6538461538461539 0  0 0.6538461538461539 0  0.02500000000000001 0.6538461538461539 0  0.05 0.6538461538461539 0  -0.05 0.6923076923076923 0  -0.025 0.6923076923076923 0  0 0.6923076923076923 0  0.02500000000000001 0.6923076923076923 0  0.05 0.6923076923076923 0  -0.05 0.7307692307692307 0  -0.025 0.7307692307692307 0  0 0.7307692307692307 0  0.02500000000000001 0.7307692307692307 0  0.05 0.7307692307692307 0  -0.05 0.7692307692307693 0  -0.025 0.7692307692307693 0  0 0.7692307692307693 0  0.02500000000000001 0.7692307692307693 0  0.05 0.7692307692307693 0  -0.05 0.8076923076923077 0  -0.025 0.8076923076923077 0  0 0.8076923076923077 0  0.02500000000000001 0.8076923076923077 0  0.05 0.8076923076923077 0  -0.05 0.8461538461538461 0  -0.025 0.8461538461538461 0  0 0.8461538461538461 0  0.02500000000000001 0.8461538461538461 0  0.05 0.8461538461538461 0  -0.05 0.8846153846153846 0  -0.025 0.8846153846153846 0  0 0.8846153846153846 0  0.02500000000000001 0.8846153846153846 0  0.05 0.8846153846153846 0  -0.05 0.9230769230769231 0  -0.025 0.9230769230769231 0  0 0.9230769230769231 0  0.02500000000000001 0.9230769230769231 0  0.05 0.9230769230769231 0  -0.05 0.9615384615384616 0  -0.025 0.9615384615384616 0  0 0.9615384615384616 0  0.02500000000000001 0.9615384615384616 0  0.05 0.9615384615384616 0  -0.05 1 0  -0.025 1 0  0 1 0  0.02500000000000001 1 0  0.05 1 0  </DataArray>
</Points>
<Cells>
<DataArray  type="UInt32"  Name="connectivity"  format="ascii">0 1 6  0 5 6  1 2 7  1 6 7  2 3 8  2 7 8  3 4 9  3 8 9  5 6 11  5 10 11  6 7 12  6 11 12  7 8 13  7 12 13  8 9 14  8 13 14  10 11 16  10 15 16  11 12 17  11 16 17  12 13 18  12 17 18  13 14 19  13 18 19  15 16 21  15 20 21  16 17 22  16 21 22  17 18 23  17 22 23  18 19 24  18 23 24  20 21 26  20 25 26  21 22 27  21 26 27  22 23 28  22 27 28  23 24 29  23 28 29  25 26 31  25 30 31  26 27 32  26 31 32  27 28 33  27 32 33  28 29 34  28 33 34  30 31 36  30 35 36  31 32 37  31 36 37  32 33 38  32 37 38  33 34 39  33 38 39  35 36 41  35 40 41  36 37 42  36 41 42  37 38 43  37 42 43  38 39 44  38 43 44  40 41 46  40 45 46  41 42 47  41 46 47  42 43 48  42 47 48  43 44 49  43 48 49  45 46 51  45 50 51  46 47 52  46 51 52  47 48 53  47 52 53  48 49 54  48 53 54  50 51 56  50 55 56  51 52 57  51 56 57  52 53 58  52 57 58  53 54 59  53 58 59  55 56 61  55 60 61  56 57 62  56 61 62  57 58 63  57 62 63  58 59 64  58 63 64  60 61 66  60 65 66  61 62 67  61 66 67  62 63 68  62 67 68  63 64 69  63 68 69  65 66 71  65 70 71  66 67 72  66 71 72  67 68 73  67 72 73  68 69 74  68 73 74  70 71 76  70 75 76  71 72 77  71 76 77  72 73 78  72 77 78  73 74 79  73 78 79  75 76 81  75 80 81  76 77 82  76 81 82  77 78 83  77 82 83  78 79 84  78 83 84  80 81 86  80 85 86  81 82 87  81 86 87  82 83 88  82 87 88  83 84 89  83 88 89  85 86 91  85 90 91  86 87 92  86 91 92  87 88 93  87 92 93  88 89 94  88 93 94  90 91 96  90 95 96  91 92 97  91 96 97  92 93 98  92 97 98  93 94 99  93 98 99  95 96 101  95 100 101  96 97 102  96 101 102  97 98 103  97 102 103  98 99 104  98 103 104  100 101 106  100 105 106  101 102 107  101 106 107  102 103 108  102 107 108  103 104 109  103 108 109  105 106 111  105 110 111  106 107 112  106 111 112  107 108 113  107 112 113  108 109 114  108 113 114  110 111 116  110 115 116  111 112 117  111 116 117  112 113 118  112 117 118  113 114 119  113 118 119  115 116 121  115 120 121  116 117 122  116 121 122  117 118 123  117 122 123  118 119 124  118 123 124  120 121 126  120 125 126  121 122 127  121 126 127  122 123 128  122 127 128  123 124 129  123 128 129  125 126 131  125 130 131  126 127 132  126 131 132  127 128 133  127 132 133  128 129 134  128 133 134  </DataArray>
<DataArray  type="UInt32"  Name="offsets"  format="ascii">3 6 9 12 15 18 21 24 27 30 33 36 39 42 45 48 51 54 57 60 63 66 69 72 75 78 81 84 87 90 93 96 99 102 105 108 111 114 117 120 123 126 129 132 135 138 141 144 147 150 153 156 159 162 165 168 171 174 177 180 183 186 189 192 195 198 201 204 207 210 213 216 219 222 225 228 231 234 237 240 243 246 249 252 255 258 261 264 267 270 273 276 279 282 285 288 291 294 297 300 303 306 309 312 315 318 321 324 327 330 333 336 339 342 345 348 351 354 357 360 363 366 369 372 375 378 381 384 387 390 393 396 399 402 405 408 411 414 417 420 423 426 429 432 435 438 441 444 447 450 453 456 459 462 465 468 471 474 477 480 483 486 489 492 495 498 501 504 507 510 513 516 519 522 525 528 531 534 537 540 543 546 549 552 555 558 561 564 567 570 573 576 579 582 585 588 591 594 597 600 603 606 609 612 615 618 621 624 </DataArray>
<DataArray  type="UInt8"  Name="types"  format="ascii">5 5 5 5 5 5 5 5 5 5 5 5 5 5 5 5 5 5 5 5 5 5 5 5 5 5 5 5 5 5 5 5 5 5 5 5 5 5 5 5 5 5 5 5 5 5 5 5 5 5 5 5 5 5 5 5 5 5 5 5 5 5 5 5 5 5 5 5 5 5 5 5 5 5 5 5 5 5 5 5 5 5 5 5 5 5 5 5 5 5 5 5 5 5 5 5 5 5 5 5 5 5 5 5 5 5 5 5 5 5 5 5 5 5 5 5 5 5 5 5 5 5 5 5 5 5 5 5 5 5 5 5 5 5 5 5 5 5 5 5 5 5 5 5 5 5 5 5 5 5 5 5 5 5 5 5 5 5 5 5 5 5 5 5 5 5 5 5 5 5 5 5 5 5 5 5 5 5 5 5 5 5 5 5 5 5 5 5 5 5 5 5 5 5 5 5 5 5 5 5 5 5 5 5 5 5 5 5 </DataArray>
</Cells>
<PointData  Vectors="Displacement"> 
<DataArray  type="Float64"  Name="Displacement"  NumberOfComponents="3" format="ascii">-4.4351496788068280e-16 7.8122847510182412e-18 0.0000000000000000e+00  0.0000000000000000e+00 0.0000000000000000e+00 0.0000000000000000e+00  0.0000000000000000e+00 0.0000000000000000e+00 0.0000000000000000e+00  -5.5699476584233506e-17 1.1940126507896154e-18 0.0000000000000000e+00  1.6709842975270054e-16 -3.5820379523688465e-18 0.0000000000000000e+00  5.5229992293020992e-04 8.3578405763921220e-04 0.0000000000000000e+00  3.7604881357385729e-04 4.0336818580876934e-04 0.0000000000000000e+00  3.0911249261406684e-04 9.3435726839180032e-06 0.0000000000000000e+00  3.6082947979874122e-04 -3.8032074806923277e-04 0.0000000000000000e+00  5.3483603630413831e-04 -8.2077346719209925e-04 0.0000000000000000e+00  1.5413360667822331e-03 1.6283487686057940e-03 0.0000000000000000e+00  1.3771522068156674e-03 8.1108006567401684e-04 0.0000000000000000e+00  1.3206134890533969e-03 1.9907998984606261e-05 0.0000000000000000e+00  1.3720612221684028e-03 -7.7276742197576211e-04 0.0000000000000000e+00  1.5306722945929998e-03 -1.5932759326168229e-03 0.0000000000000000e+00  3.1204371424528353e-03 2.3788720050831502e-03 0.0000000000000000e+00  2.9677702680938364e-03 1.1896845656782986e-03 0.0000000000000000e+00  2.9160439938668652e-03 2.8107290226392862e-05 0.0000000000000000e+00  2.9633863286417494e-03 -1.1341368152896919e-03 0.0000000000000000e+00  3.1108296010147803e-03 -2.3230811965869935e-03 0.0000000000000000e+00  5.2531503412296329e-03 3.0756114183282104e-03 0.0000000000000000e+00  5.1113802653419953e-03 1.5422542263331146e-03 0.0000000000000000e+00  5.0625875595636440e-03 3.6880020889188965e-05 0.0000000000000000e+00  5.1057573822092788e-03 -1.4687977884375225e-03 0.0000000000000000e+00  5.2420606027811512e-03 -3.0018977599768782e-03 0.0000000000000000e+00  7.8928765524947219e-03 3.7174352260429359e-03 0.0000000000000000e+00  7.7639247198897816e-03 1.8676754059256387e-03 0.0000000000000000e+00  7.7200122008311070e-03 4.6384169509630794e-05 0.0000000000000000e+00  7.7589326403659387e-03 -1.7754041456483005e-03 0.0000000000000000e+00  7.8828552963250715e-03 -3.6261121561884995e-03 0.0000000000000000e+00  1.1001403099775793e-02 4.3039607845311431e-03 0.0000000000000000e+00  1.0882297656971055e-02 2.1649271745773791e-03 0.0000000000000000e+00  1.0841565385809786e-02 5.5109189626758974e-05 0.0000000000000000e+00  1.0877808484058744e-02 -2.0551196656574157e-03 0.0000000000000000e+00  1.0991712529163611e-02 -4.1931413195664697e-03 0.0000000000000000e+00  1.4528069900827669e-02 4.8362144637665271e-03 0.0000000000000000e+00  1.4420906356110612e-02 2.4366752960311936e-03 0.0000000000000000e+00  1.4383612311036863e-02 6.4153344072244363e-05 0.0000000000000000e+00  1.4415150798278658e-02 -2.3082316051357701e-03 0.0000000000000000e+00  1.4516918444481589e-02 -4.7067423989916443e-03 0.0000000000000000e+00  1.8439595054796896e-02 5.3195174085404829e-03 0.0000000000000000e+00  1.8341558373564451e-02 2.6831441573319779e-03 0.0000000000000000e+00  1.8307248430051961e-02 7.4079605044955564e-05 0.0000000000000000e+00  1.8335154515399351e-02 -2.5348154494534607e-03 0.0000000000000000e+00  1.8426835845336026e-02 -5.1709479704627687e-03 0.0000000000000000e+00  2.2693519386178581e-02 5.7510921635899855e-03 0.0000000000000000e+00  2.2608049549037810e-02 2.9032816174732420e-03 0.0000000000000000e+00  2.2578772602517502e-02 8.4151379104686745e-05 0.0000000000000000e+00  2.2603339940985172e-02 -2.7352447077242520e-03 0.0000000000000000e+00  2.2683594146752060e-02 -5.5831408124186865e-03 0.0000000000000000e+00  2.7258121054847460e-02 6.1293544552316372e-03 0.0000000000000000e+00  2.7183921689229257e-02 3.0959816602636235e-03 0.0000000000000000e+00  2.7157779977389676e-02 9.3849427482519722e-05 0.0000000000000000e+00  2.7178010794262852e-02 -2.9077421819198521e-03 0.0000000000000000e+00  2.7246113772592846e-02 -5.9392673221213511e-03 0.0000000000000000e+00  3.2085778730902022e-02 6.4471700696923191e-03 0.0000000000000000e+00  3.2023382774545507e-02 3.2607429771490315e-03 0.0000000000000000e+00  3.2000464867208825e-02 1.0537633312062272e-04 0.0000000000000000e+00  3.2016160513420787e-02 -3.0501146871442877e-03 0.0000000000000000e+00  3.2072232884230945e-02 -6.2363482922060572e-03 0.0000000000000000e+00  3.7120603847727127e-02 6.7039855836772350e-03 0.0000000000000000e+00  3.7071920857274544e-02 3.3956840833056019e-03 0.0000000000000000e+00  3.7054308765537780e-02 1.1640714178750964e-04 0.0000000000000000e+00  3.7066961236830773e-02 -3.1632459953484719e-03 0.0000000000000000e+00  3.7110334398534631e-02 -6.4722434599838010e-03 0.0000000000000000e+00  4.2322318357166856e-02 6.9032628755942840e-03 0.0000000000000000e+00  4.2283100232841729e-02 3.5016419708899130e-03 0.0000000000000000e+00  4.2268100458588607e-02 1.2648727053158750e-04 0.0000000000000000e+00  4.2276763622299991e-02 -3.2487956718033908e-03 0.0000000000000000e+00  4.2309338492090662e-02 -6.6486922628389341e-03 0.0000000000000000e+00  4.7634672442323313e-02 7.0498033003522443e-03 0.0000000000000000e+00  4.7606187786702697e-02 3.5835889515564824e-03 0.0000000000000000e+00  4.7594409364584700e-02 1.3747561188339610e-04 0.0000000000000000e+00  4.7599577913749011e-02 -3.3090164918480958e-03 0.0000000000000000e+00  4.7622107806103778e-02 -6.7757457521929066e-03 0.0000000000000000e+00  5.3027396434899239e-02 7.1583716817933555e-03 0.0000000000000000e+00  5.3004731490496990e-02 3.6453809002925282e-03 0.0000000000000000e+00  5.2995715312326358e-02 1.4740654407421812e-04 0.0000000000000000e+00  5.2999656114683727e-02 -3.3509337409586837e-03 0.0000000000000000e+00  5.3016021595194543e-02 -6.8643961347493176e-03 0.0000000000000000e+00  5.8472936486783186e-02 7.2391296633592984e-03 0.0000000000000000e+00  5.8455434560921546e-02 3.6925689548256329e-03 0.0000000000000000e+00  5.8448122392039996e-02 1.5616854494678774e-04 0.0000000000000000e+00  5.8450448670258746e-02 -3.3799782084542626e-03 0.0000000000000000e+00  5.8462089635621210e-02 -6.9247100995933801e-03 0.0000000000000000e+00  6.3956534460605272e-02 7.3025530250688097e-03 0.0000000000000000e+00  6.3941721650605687e-02 3.7316494883061820e-03 0.0000000000000000e+00  6.3934874704213537e-02 1.6574645498274403e-04 0.0000000000000000e+00  6.3935617765969066e-02 -3.4002411258627816e-03 0.0000000000000000e+00  6.3944324928017132e-02 -6.9716205838003514e-03 0.0000000000000000e+00  6.9472670459025498e-02 7.3572557744898195e-03 0.0000000000000000e+00  6.9459747124666765e-02 3.7635152068826081e-03 0.0000000000000000e+00  6.9454958156931701e-02 1.7397599066333765e-04 0.0000000000000000e+00  6.9455880819787763e-02 -3.4161563906740865e-03 0.0000000000000000e+00  6.9463603936082280e-02 -7.0100630052092744e-03 0.0000000000000000e+00  7.5020417182740620e-02 7.4037847335451448e-03 0.0000000000000000e+00  7.5010499535919983e-02 3.7897650428681232e-03 0.0000000000000000e+00  7.5006401904711639e-02 1.8063740185359791e-04 0.0000000000000000e+00  7.5006820339321836e-02 -3.4284936484340113e-03 0.0000000000000000e+00  7.5012324190260868e-02 -7.0417211134515380e-03 0.0000000000000000e+00  8.0600247633157013e-02 7.4418803478883680e-03 0.0000000000000000e+00  8.0590605936181947e-02 3.8120278782965509e-03 0.0000000000000000e+00  8.0586310046190476e-02 1.8749460884129963e-04 0.0000000000000000e+00  8.0585702017981237e-02 -3.4374968480371327e-03 0.0000000000000000e+00  8.0590334172417136e-02 -7.0669127098020460e-03 0.0000000000000000e+00  8.6195880770606026e-02 7.4692430377520432e-03 0.0000000000000000e+00  8.6189683849050805e-02 3.8290928182137416e-03 0.0000000000000000e+00  8.6187323591330509e-02 1.9356981765897364e-04 0.0000000000000000e+00  8.6187206873290248e-02 -3.4425032410785447e-03 0.0000000000000000e+00  8.6189717600165472e-02 -7.0830179012295342e-03 0.0000000000000000e+00  9.1805476006483325e-02 7.4890543536751918e-03 0.0000000000000000e+00  9.1799703513302147e-02 3.8421964218765675e-03 0.0000000000000000e+00  9.1797199313829000e-02 1.9816571103414214e-04 0.0000000000000000e+00  9.1796813163700974e-02 -3.4455475284965870e-03 0.0000000000000000e+00  9.1798660987469735e-02 -7.0910453796548308e-03 0.0000000000000000e+00  9.7420125552830486e-02 7.5025679404954835e-03 0.0000000000000000e+00  9.7415428243767060e-02 3.8515602650043695e-03 0.0000000000000000e+00  9.7413302318008752e-02 2.0252795541529726e-04 0.0000000000000000e+00  9.7412246332465563e-02 -3.4462200975930637e-03 0.0000000000000000e+00  9.7413529097008053e-02 -7.0953007791723132e-03 0.0000000000000000e+00  1.0303757093201647e-01 7.5122847275349413e-03 0.0000000000000000e+00  1.0303430684080116e-01 3.8587273562454586e-03 0.0000000000000000e+00  1.0303264160311972e-01 2.0634532603412399e-04 0.0000000000000000e+00  1.0303160956539013e-01 -3.4456112399361520e-03 0.0000000000000000e+00  1.0303196817631823e-01 -7.0983144556689311e-03 0.0000000000000000e+00  1.0866276060535938e-01 7.5213802106153986e-03 0.0000000000000000e+00  1.0865835156120084e-01 3.8635855574808585e-03 0.0000000000000000e+00  1.0865686033582056e-01 2.0878726307469627e-04 0.0000000000000000e+00  1.0865644405517418e-01 -3.4452121320610167e-03 0.0000000000000000e+00  1.0865834128675057e-01 -7.0995033215368831e-03 0.0000000000000000e+00  1.1428852825063003e-01 7.5256762551103324e-03 0.0000000000000000e+00  1.1428662893541375e-01 3.8677866575191591e-03 0.0000000000000000e+00  1.1428458763748436e-01 2.1173039857847072e-04 0.0000000000000000e+00  1.1428283506263101e-01 -3.4433429331763516e-03 0.0000000000000000e+00  1.1428258678364867e-01 -7.0999642632492699e-03 0.0000000000000000e+00  </DataArray> 
</PointData> 
</Piece>
</UnstructuredGrid>
</VTKFile>