<?xml version="1.0"?>
<VTKFile type="UnstructuredGrid"  version="0.1"  >
<UnstructuredGrid>
<Piece  NumberOfPoints="135" NumberOfCells="208">
<Points>
<DataArray  type="Float64"  NumberOfComponents="3"  format="ascii">-0.05 0 0  -0.025 0 0  0 0 0  0.02500000000000001 0 0  0.05 0 0  -0.05 0.03846153846153846 0  -0.025 0.03846153846153846 0  0 0.03846153846153846 0  0.02500000000000001 0.03846153846153846 0  0.05 0.03846153846153846 0  -0.05 0.07692307692307693 0  -0.025 0.07692307692307693 0  0 0.07692307692307693 0  0.02500000000000001 0.07692307692307693 0  0.05 0.07692307692307693 0  -0.05 0.1153846153846154 0  -0.025 0.1153846153846154 0  0 0.1153846153846154 0  0.02500000000000001 0.1153846153846154 0  0.05 0.1153846153846154 0  -0.05 0.1538461538461539 0  -0.025 0.1538461538461539 0  0 0.1538461538461539 0  0.02500000000000001 0.1538461538461539 0  0.05 0.1538461538461539 0  -0.05 0.1923076923076923 0  -0.025 0.1923076923076923 0  0 0.1923076923076923 0  0.02500000000000001 0.1923076923076923 0  0.05 0.1923076923076923 0  -0.05 0.2307692307692308 0  -0.025 0.2307692307692308 0  0 0.2307692307692308 0  0.02500000000000001 0.2307692307692308 0  0.05 0.2307692307692308 0  -0.05 0.2692307692307692 0  -0.025 0.2692307692307692 0  0 0.2692307692307692 0  0.02500000000000001 0.2692307692307692 0  0.05 0.2692307692307692 0  -0.05 0.3076923076923077 0  -0.025 0.3076923076923077 0  0 0.3076923076923077 0  0.02500000000000001 0.3076923076923077 0  0.05 0.3076923076923077 0  -0.05 0.3461538461538461 0  -0.025 0.3461538461538461 0  0 0.3461538461538461 0  0.02500000000000001 0.3461538461538461 0  0.05 0.3461538461538461 0  -0.05 0.3846153846153846 0  -0.025 0.3846153846153846 0  0 0.3846153846153846 0  0.02500000000000001 0.3846153846153846 0  0.05 0.3846153846153846 0  -0.05 0.4230769230769231 0  -0.025 0.4230769230769231 0  0 0.4230769230769231 0  0.02500000000000001 0.4230769230769231 0  0.05 0.4230769230769231 0  -0.05 0.4615384615384616 0  -0.025 0.4615384615384616 0  0 0.4615384615384616 0  0.02500000000000001 0.4615384615384616 0  0.05 0.4615384615384616 0  -0.05 0.5 0  -0.025 0.5 0  0 0.5 0  0.02500000000000001 0.5 0  0.05 0.5 0  -0.05 0.5384615384615384 0  -0.025 0.5384615384615384 0  0 0.5384615384615384 0  0.02500000000000001 0.5384615384615384 0  0.05 0.5384615384615384 0  -0.05 0.5769230769230769 0  -0.025 0.5769230769230769 0  0 0.5769230769230769 0  0.02500000000000001 0.5769230769230769 0  0.05 0.5769230769230769 0  -0.05 0.6153846153846154 0  -0.025 0.6153846153846154 0  0 0.6153846153846154 0  0.02500000000000001 0.6153846153846154 0  0.05 0.6153846153846154 0  -0.05 0.6538461538461539 0  -0.025 0.6538461538461539 0  0 0.6538461538461539 0  0.02500000000000001 0.6538461538461539 0  0.05 0.6538461538461539 0  -0.05 0.6923076923076923 0  -0.025 0.6923076923076923 0  0 0.6923076923076923 0  0.02500000000000001 0.6923076923076923 0  0.05 0.6923076923076923 0  -0.05 0.7307692307692307 0  -0.025 0.7307692307692307 0  0 0.7307692307692307 0  0.02500000000000001 0.7307692307692307 0  0.05 0.7307692307692307 0  -0.05 0.7692307692307693 0  -0.025 0.7692307692307693 0  0 0.7692307692307693 0  0.02500000000000001 0.7692307692307693 0  0.05 0.7692307692307693 0  -0.05 0.8076923076923077 0  -0.025 0.8076923076923077 0  0 0.8076923076923077 0  0.02500000000000001 0.8076923076923077 0  0.05 0.8076923076923077 0  -0.05 0.8461538461538461 0  -0.025 0.8461538461538461 0  0 0.8461538461538461 0  0.02500000000000001 0.8461538461538461 0  0.05 0.8461538461538461 0  -0.05 0.8846153846153846 0  -0.025 0.8846153846153846 0  0 0.8846153846153846 0  0.02500000000000001 0.8846153846153846 0  0.05 0.8846153846153846 0  -0.05 0.9230769230769231 0  -0.025 0.9230769230769231 0  0 0.9230769230769231 0  0.02500000000000001 0.9230769230769231 0  0.05 0.9230769230769231 0  -0.05 0.9615384615384616 0  -0.025 0.9615384615384616 0  0 0.9615384615384616 0  0.02500000000000001 0.9615384615384616 0  0.05 0.9615384615384616 0  -0.05 1 0  -0.025 1 0  0 1 0  0.02500000000000001 1 0  0.05 1 0  </DataArray>
</Points>
<Cells>
<DataArray  type="UInt32"  Name="connectivity"  format="ascii">0 1 6  0 5 6  1 2 7  1 6 7  2 3 8  2 7 8  3 4 9  3 8 9  5 6 11  5 10 11  6 7 12  6 11 12  7 8 13  7 12 13  8 9 14  8 13 14  10 11 16  10 15 16  11 12 17  11 16 17  12 13 18  12 17 18  13 14 19  13 18 19  15 16 21  15 20 21  16 17 22  16 21 22  17 18 23  17 22 23  18 19 24  18 23 24  20 21 26  20 25 26  21 22 27  21 26 27  22 23 28  22 27 28  23 24 29  23 28 29  25 26 31  25 30 31  26 27 32  26 31 32  27 28 33  27 32 33  28 29 34  28 33 34  30 31 36  30 35 36  31 32 37  31 36 37  32 33 38  32 37 38  33 34 39  33 38 39  35 36 41  35 40 41  36 37 42  36 41 42  37 38 43  37 42 43  38 39 44  38 43 44  40 41 46  40 45 46  41 42 47  41 46 47  42 43 48  42 47 48  43 44 49  43 48 49  45 46 51  45 50 51  46 47 52  46 51 52  47 48 53  47 52 53  48 49 54  48 53 54  50 51 56  50 55 56  51 52 57  51 56 57  52 53 58  52 57 58  53 54 59  53 58 59  55 56 61  55 60 61  56 57 62  56 61 62  57 58 63  57 62 63  58 59 64  58 63 64  60 61 66  60 65 66  61 62 67  61 66 67  62 63 68  62 67 68  63 64 69  63 68 69  65 66 71  65 70 71  66 67 72  66 71 72  67 68 73  67 72 73  68 69 74  68 73 74  70 71 76  70 75 76  71 72 77  71 76 77  72 73 78  72 77 78  73 74 79  73 78 79  75 76 81  75 80 81  76 77 82  76 81 82  77 78 83  77 82 83  78 79 84  78 83 84  80 81 86  80 85 86  81 82 87  81 86 87  82 83 88  82 87 88  83 84 89  83 88 89  85 86 91  85 90 91  86 87 92  86 91 92  87 88 93  87 92 93  88 89 94  88 93 94  90 91 96  90 95 96  91 92 97  91 96 97  92 93 98  92 97 98  93 94 99  93 98 99  95 96 101  95 100 101  96 97 102  96 101 102  97 98 103  97 102 103  98 99 104  98 103 104  100 101 106  100 105 106  101 102 107  101 106 107  102 103 108  102 107 108  103 104 109  103 108 109  105 106 111  105 110 111  106 107 112  106 111 112  107 108 113  107 112 113  108 109 114  108 113 114  110 111 116  110 115 116  111 112 117  111 116 117  112 113 118  112 117 118  113 114 119  113 118 119  115 116 121  115 120 121  116 117 122  116 121 122  117 118 123  117 122 123  118 119 124  118 123 124  120 121 126  120 125 126  121 122 127  121 126 127  122 123 128  122 127 128  123 124 129  123 128 129  125 126 131  125 130 131  126 127 132  126 131 132  127 128 133  127 132 133  128 129 134  128 133 134  </DataArray>
<DataArray  type="UInt32"  Name="offsets"  format="ascii">3 6 9 12 15 18 21 24 27 30 33 36 39 42 45 48 51 54 57 60 63 66 69 72 75 78 81 84 87 90 93 96 99 102 105 108 111 114 117 120 123 126 129 132 135 138 141 144 147 150 153 156 159 162 165 168 171 174 177 180 183 186 189 192 195 198 201 204 207 210 213 216 219 222 225 228 231 234 237 240 243 246 249 252 255 258 261 264 267 270 273 276 279 282 285 288 291 294 297 300 303 306 309 312 315 318 321 324 327 330 333 336 339 342 345 348 351 354 357 360 363 366 369 372 375 378 381 384 387 390 393 396 399 402 405 408 411 414 417 420 423 426 429 432 435 438 441 444 447 450 453 456 459 462 465 468 471 474 477 480 483 486 489 492 495 498 501 504 507 510 513 516 519 522 525 528 531 534 537 540 543 546 549 552 555 558 561 564 567 570 573 576 579 582 585 588 591 594 597 600 603 606 609 612 615 618 621 624 </DataArray>
<DataArray  type="UInt8"  Name="types"  format="ascii">5 5 5 5 5 5 5 5 5 5 5 5 5 5 5 5 5 5 5 5 5 5 5 5 5 5 5 5 5 5 5 5 5 5 5 5 5 5 5 5 5 5 5 5 5 5 5 5 5 5 5 5 5 5 5 5 5 5 5 5 5 5 5 5 5 5 5 5 5 5 5 5 5 5 5 5 5 5 5 5 5 5 5 5 5 5 5 5 5 5 5 5 5 5 5 5 5 5 5 5 5 5 5 5 5 5 5 5 5 5 5 5 5 5 5 5 5 5 5 5 5 5 5 5 5 5 5 5 5 5 5 5 5 5 5 5 5 5 5 5 5 5 5 5 5 5 5 5 5 5 5 5 5 5 5 5 5 5 5 5 5 5 5 5 5 5 5 5 5 5 5 5 5 5 5 5 5 5 5 5 5 5 5 5 5 5 5 5 5 5 5 5 5 5 5 5 5 5 5 5 5 5 5 5 5 5 5 5 </DataArray>
</Cells>
<PointData  Vectors="Displacement"> 
<DataArray  type="Float64"  Name="Displacement"  NumberOfComponents="3" format="ascii">-4.7236236028396598e-16 7.5035502733035774e-18 0.0000000000000000e+00  0.0000000000000000e+00 0.0000000000000000e+00 0.0000000000000000e+00  0.0000000000000000e+00 0.0000000000000000e+00 0.0000000000000000e+00  -5.7718876810247397e-17 1.1599173796977217e-18 0.0000000000000000e+00  1.7315663043074219e-16 -3.4797521390931652e-18 0.0000000000000000e+00  4.8337979064617780e-04 7.1651728610263243e-04 0.0000000000000000e+00  3.3363867129797449e-04 3.3867136281210926e-04 0.0000000000000000e+00  2.7898676499165602e-04 -3.7442936984504933e-06 0.0000000000000000e+00  3.2762275350047638e-04 -3.4325856750686543e-04 0.0000000000000000e+00  4.8304829677632023e-04 -7.3152111674868164e-04 0.0000000000000000e+00  1.3517681617570877e-03 1.3899205384363049e-03 0.0000000000000000e+00  1.2140140097266264e-03 6.7740800769901493e-04 0.0000000000000000e+00  1.1689854675018350e-03 -8.8033002042551131e-06 0.0000000000000000e+00  1.2177474344310549e-03 -6.9605346882513949e-04 0.0000000000000000e+00  1.3581894475326796e-03 -1.4099218981770375e-03 0.0000000000000000e+00  2.7263515133314582e-03 2.0172864769992410e-03 0.0000000000000000e+00  2.5993308255661115e-03 9.8900162077517843e-04 0.0000000000000000e+00  2.5579007364726113e-03 -1.4161011357682443e-05 0.0000000000000000e+00  2.6019875251291867e-03 -1.0181219551613156e-03 0.0000000000000000e+00  2.7318897526834836e-03 -2.0463789691927818e-03 0.0000000000000000e+00  4.5628325993275782e-03 2.5952018976539170e-03 0.0000000000000000e+00  4.4451031945716302e-03 1.2772196847952407e-03 0.0000000000000000e+00  4.4071302305359102e-03 -1.9359614230384219e-05 0.0000000000000000e+00  4.4491289616289849e-03 -1.3158726401317836e-03 0.0000000000000000e+00  4.5691816051024311e-03 -2.6341137490986876e-03 0.0000000000000000e+00  6.8255888874240488e-03 3.1312213598343941e-03 0.0000000000000000e+00  6.7177523143541838e-03 1.5425495706828862e-03 0.0000000000000000e+00  6.6832535451159534e-03 -2.4805563418691405e-05 0.0000000000000000e+00  6.7212263034368254e-03 -1.5919517534858704e-03 0.0000000000000000e+00  6.8324327737857293e-03 -3.1794387476790729e-03 0.0000000000000000e+00  9.4932388730779044e-03 3.6285579095688678e-03 0.0000000000000000e+00  9.3913743008153232e-03 1.7887497992116954e-03 0.0000000000000000e+00  9.3586545570800202e-03 -2.9377456831060641e-05 0.0000000000000000e+00  9.3941571588302061e-03 -1.8477698413980007e-03 0.0000000000000000e+00  9.4979850397364073e-03 -3.6871016653937765e-03 0.0000000000000000e+00  1.2525304064728746e-02 4.0858769305501391e-03 0.0000000000000000e+00  1.2433495607102364e-02 2.0164559597488484e-03 0.0000000000000000e+00  1.2403813638931928e-02 -3.3852750867538231e-05 0.0000000000000000e+00  1.2436752786644368e-02 -2.0847446316951158e-03 0.0000000000000000e+00  1.2532213127107712e-02 -4.1542950533875701e-03 0.0000000000000000e+00  1.5897678055778491e-02 4.5059913635814913e-03 0.0000000000000000e+00  1.5811159578315824e-02 2.2253454251949514e-03 0.0000000000000000e+00  1.5783265183945228e-02 -3.8678403283255367e-05 0.0000000000000000e+00  1.5814100471771838e-02 -2.3033004040924486e-03 0.0000000000000000e+00  1.5902550236881179e-02 -4.5834975235042536e-03 0.0000000000000000e+00  1.9575100756275308e-02 4.8945100160894201e-03 0.0000000000000000e+00  1.9495413410325745e-02 2.4195736731100082e-03 0.0000000000000000e+00  1.9469668784316694e-02 -4.2776720798910303e-05 0.0000000000000000e+00  1.9497766640011994e-02 -2.5057530889688213e-03 0.0000000000000000e+00  1.9579430811712182e-02 -4.9807271264000405e-03 0.0000000000000000e+00  2.3539550709915241e-02 5.2586207259437421e-03 0.0000000000000000e+00  2.3464432715250592e-02 2.6003839071228564e-03 0.0000000000000000e+00  2.3440688415119853e-02 -4.6156278909944839e-05 0.0000000000000000e+00  2.3467221605560293e-02 -2.6936937328658362e-03 0.0000000000000000e+00  2.3543889350330197e-02 -5.3521645117652816e-03 0.0000000000000000e+00  2.7777320078476820e-02 5.6043118031932097e-03 0.0000000000000000e+00  2.7705043063686447e-02 2.7721590573447619e-03 0.0000000000000000e+00  2.7682278688762083e-02 -4.9703377094526966e-05 0.0000000000000000e+00  2.7707742024865228e-02 -2.8711441085315093e-03 0.0000000000000000e+00  2.7780343454762907e-02 -5.7021349145057109e-03 0.0000000000000000e+00  3.2272396439117945e-02 5.9324342677695577e-03 0.0000000000000000e+00  3.2204984910494193e-02 2.9350841161193218e-03 0.0000000000000000e+00  3.2183003738928039e-02 -5.2375736505387330e-05 0.0000000000000000e+00  3.2206267433347348e-02 -3.0389793324135804e-03 0.0000000000000000e+00  3.2275130805057235e-02 -6.0343533203653750e-03 0.0000000000000000e+00  3.7017105638953329e-02 6.2433892258016380e-03 0.0000000000000000e+00  3.6951493129307046e-02 3.0902125614411494e-03 0.0000000000000000e+00  3.6930311025556176e-02 -5.4191727176950907e-05 0.0000000000000000e+00  3.6952619891625856e-02 -3.1984466177916349e-03 0.0000000000000000e+00  3.7018424541187075e-02 -6.3512982023141238e-03 0.0000000000000000e+00  4.1991181598077333e-02 6.5383065041752690e-03 0.0000000000000000e+00  4.1930748523973251e-02 3.2365924345398086e-03 0.0000000000000000e+00  4.1911549335760308e-02 -5.6308696130005924e-05 0.0000000000000000e+00  4.1932736810196075e-02 -3.3494247653167910e-03 0.0000000000000000e+00  4.1994512468862065e-02 -6.6508801414968538e-03 0.0000000000000000e+00  4.7192292313378049e-02 6.8180554978473744e-03 0.0000000000000000e+00  4.7133892403149642e-02 3.3750379553520544e-03 0.0000000000000000e+00  4.7115421719861855e-02 -5.8392687026272724e-05 0.0000000000000000e+00  4.7135652097324031e-02 -3.4923919669871354e-03 0.0000000000000000e+00  4.7194695494667045e-02 -6.9353182282195624e-03 0.0000000000000000e+00  5.2604984693676311e-02 7.0822500477355950e-03 0.0000000000000000e+00  5.2551167887473105e-02 3.5052096922861863e-03 0.0000000000000000e+00  5.2534957550410308e-02 -6.0240539799823485e-05 0.0000000000000000e+00  5.2553815735728614e-02 -3.6259945882510572e-03 0.0000000000000000e+00  5.2608209656849342e-02 -7.2029807683550310e-03 0.0000000000000000e+00  5.8220650791103459e-02 7.3261351949870370e-03 0.0000000000000000e+00  5.8172309542998353e-02 3.6242363785641166e-03 0.0000000000000000e+00  5.8157404394926684e-02 -6.2422942579791880e-05 0.0000000000000000e+00  5.8174670280211366e-02 -3.7489561488681274e-03 0.0000000000000000e+00  5.8224754318358093e-02 -7.4500324322896898e-03 0.0000000000000000e+00  6.4023653949645667e-02 7.5418750333639548e-03 0.0000000000000000e+00  6.3980634363968017e-02 3.7295307013669888e-03 0.0000000000000000e+00  6.3967392096141010e-02 -6.4603934156691188e-05 0.0000000000000000e+00  6.3982212251811652e-02 -3.8587979064985331e-03 0.0000000000000000e+00  6.4025653661237789e-02 -7.6693768788796178e-03 0.0000000000000000e+00  6.9982092733059068e-02 7.7219588263240909e-03 0.0000000000000000e+00  6.9948190756263282e-02 3.8181860473002565e-03 0.0000000000000000e+00  6.9937353204687733e-02 -6.6309201558491067e-05 0.0000000000000000e+00  6.9949282754983050e-02 -3.9508903832014162e-03 0.0000000000000000e+00  6.9984677829416975e-02 -7.8543972248314650e-03 0.0000000000000000e+00  7.6071212962160503e-02 7.8643402153355316e-03 0.0000000000000000e+00  7.6043259838081426e-02 3.8884069323997222e-03 0.0000000000000000e+00  7.6034775762525791e-02 -6.8313884052113586e-05 0.0000000000000000e+00  7.6044690851072252e-02 -4.0250872927526183e-03 0.0000000000000000e+00  7.6073019558419649e-02 -8.0002052508180068e-03 0.0000000000000000e+00  8.2250763193199378e-02 7.9700767689093784e-03 0.0000000000000000e+00  8.2231338234285120e-02 3.9410826226683598e-03 0.0000000000000000e+00  8.2225519779545037e-02 -6.9588768602373192e-05 0.0000000000000000e+00  8.2232794126315512e-02 -4.0802896600424078e-03 0.0000000000000000e+00  8.2252900737413231e-02 -8.1077919046472699e-03 0.0000000000000000e+00  8.8499579153035135e-02 8.0435943418092661e-03 0.0000000000000000e+00  8.8485058454414706e-02 3.9787944554619415e-03 0.0000000000000000e+00  8.8480247169245851e-02 -6.9745109291743275e-05 0.0000000000000000e+00  8.8485173827460004e-02 -4.1183746588379245e-03 0.0000000000000000e+00  8.8499219182625696e-02 -8.1818688671095544e-03 0.0000000000000000e+00  9.4784830597100425e-02 8.0878421684197222e-03 0.0000000000000000e+00  9.4775775456730507e-02 4.0030653377932180e-03 0.0000000000000000e+00  9.4773697541878060e-02 -6.9636082700529430e-05 0.0000000000000000e+00  9.4777453318705226e-02 -4.1421068606783094e-03 0.0000000000000000e+00  9.4786154424919389e-02 -8.2251856793686910e-03 0.0000000000000000e+00  1.0108777049888076e-01 8.1106077066606438e-03 0.0000000000000000e+00  1.0108330980688507e-01 4.0158383218204825e-03 0.0000000000000000e+00  1.0108200322991236e-01 -6.9788035231123984e-05 0.0000000000000000e+00  1.0108362881357776e-01 -4.1543629657744777e-03 0.0000000000000000e+00  1.0108763123745355e-01 -8.2461920511242397e-03 0.0000000000000000e+00  1.0739765022359037e-01 8.1190436485718883e-03 0.0000000000000000e+00  1.0739314988292403e-01 4.0226325862998992e-03 0.0000000000000000e+00  1.0739141016430918e-01 -6.8374900021229453e-05 0.0000000000000000e+00  1.0739154462629606e-01 -4.1591340478261182e-03 0.0000000000000000e+00  1.0739446771787058e-01 -8.2527461871206645e-03 0.0000000000000000e+00  1.1369776150788423e-01 8.1213034334986587e-03 0.0000000000000000e+00  1.1369576680106967e-01 4.0266020118162327e-03 0.0000000000000000e+00  1.1369515311847490e-01 -6.5366249609889328e-05 0.0000000000000000e+00  1.1369493876458005e-01 -4.1582929184859011e-03 0.0000000000000000e+00  1.1369510206523382e-01 -8.2539737266047498e-03 0.0000000000000000e+00  </DataArray> 
</PointData> 
</Piece>
</UnstructuredGrid>
</VTKFile>