<?xml version="1.0"?>
<VTKFile type="UnstructuredGrid"  version="0.1"  >
<UnstructuredGrid>
<Piece  NumberOfPoints="135" NumberOfCells="208">
<Points>
<DataArray  type="Float64"  NumberOfComponents="3"  format="ascii">-0.05 0 0  -0.025 0 0  0 0 0  0.02500000000000001 0 0  0.05 0 0  -0.05 0.03846153846153846 0  -0.025 0.03846153846153846 0  0 0.03846153846153846 0  0.02500000000000001 0.03846153846153846 0  0.05 0.03846153846153846 0  -0.05 0.07692307692307693 0  -0.025 0.07692307692307693 0  0 0.07692307692307693 0  0.02500000000000001 0.07692307692307693 0  0.05 0.07692307692307693 0  -0.05 0.1153846153846154 0  -0.025 0.1153846153846154 0  0 0.1153846153846154 0  0.02500000000000001 0.1153846153846154 0  0.05 0.1153846153846154 0  -0.05 0.1538461538461539 0  -0.025 0.1538461538461539 0  0 0.1538461538461539 0  0.02500000000000001 0.1538461538461539 0  0.05 0.1538461538461539 0  -0.05 0.1923076923076923 0  -0.025 0.1923076923076923 0  0 0.1923076923076923 0  0.02500000000000001 0.1923076923076923 0  0.05 0.1923076923076923 0  -0.05 0.2307692307692308 0  -0.025 0.2307692307692308 0  0 0.2307692307692308 0  0.02500000000000001 0.2307692307692308 0  0.05 0.2307692307692308 0  -0.05 0.2692307692307692 0  -0.025 0.2692307692307692 0  0 0.2692307692307692 0  0.02500000000000001 0.2692307692307692 0  0.05 0.2692307692307692 0  -0.05 0.3076923076923077 0  -0.025 0.3076923076923077 0  0 0.3076923076923077 0  0.02500000000000001 0.3076923076923077 0  0.05 0.3076923076923077 0  -0.05 0.3461538461538461 0  -0.025 0.3461538461538461 0  0 0.3461538461538461 0  0.02500000000000001 0.3461538461538461 0  0.05 0.3461538461538461 0  -0.05 0.3846153846153846 0  -0.025 0.3846153846153846 0  0 0.3846153846153846 0  0.02500000000000001 0.3846153846153846 0  0.05 0.3846153846153846 0  -0.05 0.4230769230769231 0  -0.025 0.4230769230769231 0  0 0.4230769230769231 0  0.02500000000000001 0.4230769230769231 0  0.05 0.4230769230769231 0  -0.05 0.4615384615384616 0  -0.025 0.4615384615384616 0  0 0.4615384615384616 0  0.02500000000000001 0.4615384615384616 0  0.05 0.4615384615384616 0  -0.05 0.5 0  -0.025 0.5 0  0 0.5 0  0.02500000000000001 0.5 0  0.05 0.5 0  -0.05 0.5384615384615384 0  -0.025 0.5384615384615384 0  0 0.5384615384615384 0  0.02500000000000001 0.5384615384615384 0  0.05 0.5384615384615384 0  -0.05 0.5769230769230769 0  -0.025 0.5769230769230769 0  0 0.5769230769230769 0  0.02500000000000001 0.5769230769230769 0  0.05 0.5769230769230769 0  -0.05 0.6153846153846154 0  -0.025 0.6153846153846154 0  0 0.6153846153846154 0  0.02500000000000001 0.6153846153846154 0  0.05 0.6153846153846154 0  -0.05 0.6538461538461539 0  -0.025 0.6538461538461539 0  0 0.6538461538461539 0  0.02500000000000001 0.6538461538461539 0  0.05 0.6538461538461539 0  -0.05 0.6923076923076923 0  -0.025 0.6923076923076923 0  0 0.6923076923076923 0  0.02500000000000001 0.6923076923076923 0  0.05 0.6923076923076923 0  -0.05 0.7307692307692307 0  -0.025 0.7307692307692307 0  0 0.7307692307692307 0  0.02500000000000001 0.7307692307692307 0  0.05 0.7307692307692307 0  -0.05 0.7692307692307693 0  -0.025 0.7692307692307693 0  0 0.7692307692307693 0  0.02500000000000001 0.7692307692307693 0  0.05 0.7692307692307693 0  -0.05 0.8076923076923077 0  -0.025 0.8076923076923077 0  0 0.8076923076923077 0  0.02500000000000001 0.8076923076923077 0  0.05 0.8076923076923077 0  -0.05 0.8461538461538461 0  -0.025 0.8461538461538461 0  0 0.8461538461538461 0  0.02500000000000001 0.8461538461538461 0  0.05 0.8461538461538461 0  -0.05 0.8846153846153846 0  -0.025 0.8846153846153846 0  0 0.8846153846153846 0  0.02500000000000001 0.8846153846153846 0  0.05 0.8846153846153846 0  -0.05 0.9230769230769231 0  -0.025 0.9230769230769231 0  0 0.9230769230769231 0  0.02500000000000001 0.9230769230769231 0  0.05 0.9230769230769231 0  -0.05 0.9615384615384616 0  -0.025 0.9615384615384616 0  0 0.9615384615384616 0  0.02500000000000001 0.9615384615384616 0  0.05 0.9615384615384616 0  -0.05 1 0  -0.025 1 0  0 1 0  0.02500000000000001 1 0  0.05 1 0  </DataArray>
</Points>
<Cells>
<DataArray  type="UInt32"  Name="connectivity"  format="ascii">0 1 6  0 5 6  1 2 7  1 6 7  2 3 8  2 7 8  3 4 9  3 8 9  5 6 11  5 10 11  6 7 12  6 11 12  7 8 13  7 12 13  8 9 14  8 13 14  10 11 16  10 15 16  11 12 17  11 16 17  12 13 18  12 17 18  13 14 19  13 18 19  15 16 21  15 20 21  16 17 22  16 21 22  17 18 23  17 22 23  18 19 24  18 23 24  20 21 26  20 25 26  21 22 27  21 26 27  22 23 28  22 27 28  23 24 29  23 28 29  25 26 31  25 30 31  26 27 32  26 31 32  27 28 33  27 32 33  28 29 34  28 33 34  30 31 36  30 35 36  31 32 37  31 36 37  32 33 38  32 37 38  33 34 39  33 38 39  35 36 41  35 40 41  36 37 42  36 41 42  37 38 43  37 42 43  38 39 44  38 43 44  40 41 46  40 45 46  41 42 47  41 46 47  42 43 48  42 47 48  43 44 49  43 48 49  45 46 51  45 50 51  46 47 52  46 51 52  47 48 53  47 52 53  48 49 54  48 53 54  50 51 56  50 55 56  51 52 57  51 56 57  52 53 58  52 57 58  53 54 59  53 58 59  55 56 61  55 60 61  56 57 62  56 61 62  57 58 63  57 62 63  58 59 64  58 63 64  60 61 66  60 65 66  61 62 67  61 66 67  62 63 68  62 67 68  63 64 69  63 68 69  65 66 71  65 70 71  66 67 72  66 71 72  67 68 73  67 72 73  68 69 74  68 73 74  70 71 76  70 75 76  71 72 77  71 76 77  72 73 78  72 77 78  73 74 79  73 78 79  75 76 81  75 80 81  76 77 82  76 81 82  77 78 83  77 82 83  78 79 84  78 83 84  80 81 86  80 85 86  81 82 87  81 86 87  82 83 88  82 87 88  83 84 89  83 88 89  85 86 91  85 90 91  86 87 92  86 91 92  87 88 93  87 92 93  88 89 94  88 93 94  90 91 96  90 95 96  91 92 97  91 96 97  92 93 98  92 97 98  93 94 99  93 98 99  95 96 101  95 100 101  96 97 102  96 101 102  97 98 103  97 102 103  98 99 104  98 103 104  100 101 106  100 105 106  101 102 107  101 106 107  102 103 108  102 107 108  103 104 109  103 108 109  105 106 111  105 110 111  106 107 112  106 111 112  107 108 113  107 112 113  108 109 114  108 113 114  110 111 116  110 115 116  111 112 117  111 116 117  112 113 118  112 117 118  113 114 119  113 118 119  115 116 121  115 120 121  116 117 122  116 121 122  117 118 123  117 122 123  118 119 124  118 123 124  120 121 126  120 125 126  121 122 127  121 126 127  122 123 128  122 127 128  123 124 129  123 128 129  125 126 131  125 130 131  126 127 132  126 131 132  127 128 133  127 132 133  128 129 134  128 133 134  </DataArray>
<DataArray  type="UInt32"  Name="offsets"  format="ascii">3 6 9 12 15 18 21 24 27 30 33 36 39 42 45 48 51 54 57 60 63 66 69 72 75 78 81 84 87 90 93 96 99 102 105 108 111 114 117 120 123 126 129 132 135 138 141 144 147 150 153 156 159 162 165 168 171 174 177 180 183 186 189 192 195 198 201 204 207 210 213 216 219 222 225 228 231 234 237 240 243 246 249 252 255 258 261 264 267 270 273 276 279 282 285 288 291 294 297 300 303 306 309 312 315 318 321 324 327 330 333 336 339 342 345 348 351 354 357 360 363 366 369 372 375 378 381 384 387 390 393 396 399 402 405 408 411 414 417 420 423 426 429 432 435 438 441 444 447 450 453 456 459 462 465 468 471 474 477 480 483 486 489 492 495 498 501 504 507 510 513 516 519 522 525 528 531 534 537 540 543 546 549 552 555 558 561 564 567 570 573 576 579 582 585 588 591 594 597 600 603 606 609 612 615 618 621 624 </DataArray>
<DataArray  type="UInt8"  Name="types"  format="ascii">5 5 5 5 5 5 5 5 5 5 5 5 5 5 5 5 5 5 5 5 5 5 5 5 5 5 5 5 5 5 5 5 5 5 5 5 5 5 5 5 5 5 5 5 5 5 5 5 5 5 5 5 5 5 5 5 5 5 5 5 5 5 5 5 5 5 5 5 5 5 5 5 5 5 5 5 5 5 5 5 5 5 5 5 5 5 5 5 5 5 5 5 5 5 5 5 5 5 5 5 5 5 5 5 5 5 5 5 5 5 5 5 5 5 5 5 5 5 5 5 5 5 5 5 5 5 5 5 5 5 5 5 5 5 5 5 5 5 5 5 5 5 5 5 5 5 5 5 5 5 5 5 5 5 5 5 5 5 5 5 5 5 5 5 5 5 5 5 5 5 5 5 5 5 5 5 5 5 5 5 5 5 5 5 5 5 5 5 5 5 5 5 5 5 5 5 5 5 5 5 5 5 5 5 5 5 5 5 </DataArray>
</Cells>
<PointData  Vectors="Displacement"> 
<DataArray  type="Float64"  Name="Displacement"  NumberOfComponents="3" format="ascii">-3.9339022303293947e-16 3.9539935085151757e-18 0.0000000000000000e+00  0.0000000000000000e+00 0.0000000000000000e+00 0.0000000000000000e+00  0.0000000000000000e+00 0.0000000000000000e+00 0.0000000000000000e+00  -7.2618426365940770e-17 7.2707596830880922e-19 0.0000000000000000e+00  2.1785527909782232e-16 -2.1812279049264277e-18 0.0000000000000000e+00  1.3445467519761776e-04 2.2234970437004403e-04 0.0000000000000000e+00  8.3187343250062706e-05 1.0985084251500663e-04 0.0000000000000000e+00  6.5046348479302666e-05 1.3204240180182440e-06 0.0000000000000000e+00  8.1140216985610983e-05 -1.0632785857729562e-04 0.0000000000000000e+00  1.3137869963648885e-04 -2.2073009727943861e-04 0.0000000000000000e+00  3.8885252505361899e-04 4.4960623002782141e-04 0.0000000000000000e+00  3.3933029278975603e-04 2.2598603481258227e-04 0.0000000000000000e+00  3.2267824801197995e-04 2.5497731914171616e-06 0.0000000000000000e+00  3.3865089719093192e-04 -2.2080267349743998e-04 0.0000000000000000e+00  3.8660129215455866e-04 -4.4358994583080868e-04 0.0000000000000000e+00  8.1872428390247136e-04 6.7957281301141354e-04 0.0000000000000000e+00  7.6833874261265835e-04 3.4272425149020039e-04 0.0000000000000000e+00  7.5163918517106687e-04 4.5821709307178682e-06 0.0000000000000000e+00  7.6767655678041324e-04 -3.3375179850406460e-04 0.0000000000000000e+00  8.1625699745726415e-04 -6.7029468920028028e-04 0.0000000000000000e+00  1.4220026679736158e-03 9.1258416494088628e-04 0.0000000000000000e+00  1.3703199337346881e-03 4.6081070395577234e-04 0.0000000000000000e+00  1.3532915613396073e-03 6.4339405262600224e-06 0.0000000000000000e+00  1.3697081399324483e-03 -4.4798277315369117e-04 0.0000000000000000e+00  1.4191987234883025e-03 -8.9866225894653451e-04 0.0000000000000000e+00  2.1994310775251104e-03 1.1521272074503572e-03 0.0000000000000000e+00  2.1467932503252845e-03 5.8307402549248372e-04 0.0000000000000000e+00  2.1289889294333736e-03 8.9000922547045906e-06 0.0000000000000000e+00  2.1455450898472772e-03 -5.6523940404506307e-04 0.0000000000000000e+00  2.1961679617191624e-03 -1.1336613024766845e-03 0.0000000000000000e+00  3.1642126387765469e-03 1.4044967426765384e-03 0.0000000000000000e+00  3.1074817980734559e-03 7.1024664163098043e-04 0.0000000000000000e+00  3.0890841089511460e-03 1.1684627081647036e-05 0.0000000000000000e+00  3.1064529222080859e-03 -6.8702130240642651e-04 0.0000000000000000e+00  3.1601081847317833e-03 -1.3803780087439947e-03 0.0000000000000000e+00  4.3246933670884804e-03 1.6682705777234927e-03 0.0000000000000000e+00  4.2677809526112838e-03 8.4316289627493952e-04 0.0000000000000000e+00  4.2485172398666164e-03 1.4707948999157725e-05 0.0000000000000000e+00  4.2660560881549424e-03 -8.1369543465128254e-04 0.0000000000000000e+00  4.3206958141534038e-03 -1.6381200817587097e-03 0.0000000000000000e+00  5.6951362503139457e-03 1.9416148806709369e-03 0.0000000000000000e+00  5.6352350031215991e-03 9.8035241390504292e-04 0.0000000000000000e+00  5.6158608948165900e-03 1.8181404396112711e-05 0.0000000000000000e+00  5.6340034467719322e-03 -9.4424796196297222e-04 0.0000000000000000e+00  5.6908325772504634e-03 -1.9052038598209155e-03 0.0000000000000000e+00  7.2820973049683409e-03 2.2204761722336751e-03 0.0000000000000000e+00  7.2237382403669932e-03 1.1184755213921617e-03 0.0000000000000000e+00  7.2046108690511004e-03 2.1309203561205908e-05 0.0000000000000000e+00  7.2223002265561272e-03 -1.0758886140769344e-03 0.0000000000000000e+00  7.2783346230190834e-03 -2.1771541010155555e-03 0.0000000000000000e+00  9.0919720679107155e-03 2.4919030414323846e-03 0.0000000000000000e+00  9.0364111810252203e-03 1.2531977693219375e-03 0.0000000000000000e+00  9.0182394553286471e-03 2.4823643064207122e-05 0.0000000000000000e+00  9.0350889466555007e-03 -1.2037229190553322e-03 0.0000000000000000e+00  9.0885975147489747e-03 -2.4423077346674834e-03 0.0000000000000000e+00  1.1113515577881166e-02 2.7435606767664106e-03 0.0000000000000000e+00  1.1062630356614474e-02 1.3777148698621434e-03 0.0000000000000000e+00  1.1046158329549504e-02 2.7968839721857784e-05 0.0000000000000000e+00  1.1061598147031173e-02 -1.3218695404931854e-03 0.0000000000000000e+00  1.1110287151040829e-02 -2.6867963088633312e-03 0.0000000000000000e+00  1.3319922150239371e-02 2.9629449845345328e-03 0.0000000000000000e+00  1.3277242864147118e-02 1.4883916154773231e-03 0.0000000000000000e+00  1.3262647517991975e-02 3.1408250167285435e-05 0.0000000000000000e+00  1.3275727399852043e-02 -1.4255359051999041e-03 0.0000000000000000e+00  1.3316937582639719e-02 -2.8995619138819581e-03 0.0000000000000000e+00  1.5683521924722933e-02 3.1476957065396847e-03 0.0000000000000000e+00  1.5645998713593453e-02 1.5821951754074015e-03 0.0000000000000000e+00  1.5633813420456815e-02 3.5004307208176892e-05 0.0000000000000000e+00  1.5644926981091167e-02 -1.5123032282561490e-03 0.0000000000000000e+00  1.5679839803648944e-02 -3.0768404463749717e-03 0.0000000000000000e+00  1.8169658298328954e-02 3.2973716311864160e-03 0.0000000000000000e+00  1.8141051851222754e-02 1.6592398135210915e-03 0.0000000000000000e+00  1.8130897444039017e-02 3.8676539124449125e-05 0.0000000000000000e+00  1.8139247859555254e-02 -1.5817473250902315e-03 0.0000000000000000e+00  1.8166047368600547e-02 -3.2188798757897645e-03 0.0000000000000000e+00  2.0754669613616931e-02 3.4133437007776179e-03 0.0000000000000000e+00  2.0731022516116977e-02 1.7203936942225509e-03 0.0000000000000000e+00  2.0722966997327875e-02 4.2892907917536964e-05 0.0000000000000000e+00  2.0729497845840147e-02 -1.6347399009578175e-03 0.0000000000000000e+00  2.0750475638318458e-02 -3.3270514481230388e-03 0.0000000000000000e+00  2.3407754827832257e-02 3.5001261802091095e-03 0.0000000000000000e+00  2.3390150335298135e-02 1.7669796127247914e-03 0.0000000000000000e+00  2.3383782754723276e-02 4.6778325617631916e-05 0.0000000000000000e+00  2.3388436351510371e-02 -1.6733787855317075e-03 0.0000000000000000e+00  2.3403544468911203e-02 -3.4053125037962297e-03 0.0000000000000000e+00  2.6107475758639101e-02 3.5628740650680002e-03 0.0000000000000000e+00  2.6093935871543524e-02 1.8028057990282706e-03 0.0000000000000000e+00  2.6088889087737977e-02 5.1034969096681517e-05 0.0000000000000000e+00  2.6092231767403745e-02 -1.7008264969766121e-03 0.0000000000000000e+00  2.6103266240096117e-02 -3.4605262318661689e-03 0.0000000000000000e+00  2.8840663030262458e-02 3.6124555044105789e-03 0.0000000000000000e+00  2.8828515949090694e-02 1.8303686068049752e-03 0.0000000000000000e+00  2.8824639023562429e-02 5.4793176430709020e-05 0.0000000000000000e+00  2.8827375960977356e-02 -1.7208411845189204e-03 0.0000000000000000e+00  2.8836485985890854e-02 -3.5016279308823870e-03 0.0000000000000000e+00  3.1599539367157106e-02 3.6525961790714223e-03 0.0000000000000000e+00  3.1590863391143864e-02 1.8531712826090395e-03 0.0000000000000000e+00  3.1587560998852737e-02 5.8596777599692494e-05 0.0000000000000000e+00  3.1589217717553839e-02 -1.7358775143629661e-03 0.0000000000000000e+00  3.1595714365808464e-02 -3.5346201325567547e-03 0.0000000000000000e+00  3.4386076845489319e-02 3.6865569993553317e-03 0.0000000000000000e+00  3.4377145455200958e-02 1.8716439049432307e-03 0.0000000000000000e+00  3.4374603339480010e-02 6.2355483331561130e-05 0.0000000000000000e+00  3.4376151925152719e-02 -1.7469365396985499e-03 0.0000000000000000e+00  3.4382092225310572e-02 -3.5604099051498653e-03 0.0000000000000000e+00  3.7190498572550808e-02 3.7117751014071488e-03 0.0000000000000000e+00  3.7185100691649375e-02 1.8859659490595567e-03 0.0000000000000000e+00  3.7182942584609163e-02 6.5898891241479148e-05 0.0000000000000000e+00  3.7183407036822741e-02 -1.7539321629526702e-03 0.0000000000000000e+00  3.7186676244032907e-02 -3.5783483169318300e-03 0.0000000000000000e+00  4.0009735661304439e-02 3.7275686986436019e-03 0.0000000000000000e+00  4.0005091809553098e-02 1.8960812320074547e-03 0.0000000000000000e+00  4.0003536046488229e-02 6.9712112927161436e-05 0.0000000000000000e+00  4.0003783938411641e-02 -1.7567581084450975e-03 0.0000000000000000e+00  4.0006018713522239e-02 -3.5873271350064600e-03 0.0000000000000000e+00  4.2832606371413520e-02 3.7353208776219841e-03 0.0000000000000000e+00  4.2829398434134559e-02 1.9018379425910178e-03 0.0000000000000000e+00  4.2828327764609604e-02 7.2792385664048118e-05 0.0000000000000000e+00  4.2828374663542355e-02 -1.7564209468179728e-03 0.0000000000000000e+00  4.2829496346363218e-02 -3.5883269340648773e-03 0.0000000000000000e+00  4.5652007646287171e-02 3.7367980844884956e-03 0.0000000000000000e+00  4.5650259379820972e-02 1.9054212591130062e-03 0.0000000000000000e+00  4.5649563658257251e-02 7.5912252024029522e-05 0.0000000000000000e+00  4.5649305298766998e-02 -1.7539938694016021e-03 0.0000000000000000e+00  4.5649254329343747e-02 -3.5847079085316409e-03 0.0000000000000000e+00  4.8470879908197005e-02 3.7391504862140015e-03 0.0000000000000000e+00  4.8466891142543087e-02 1.9077965148369266e-03 0.0000000000000000e+00  4.8466094117098325e-02 7.8729957352717607e-05 0.0000000000000000e+00  4.8466206661435085e-02 -1.7509408033146486e-03 0.0000000000000000e+00  4.8468055260232457e-02 -3.5801012001152651e-03 0.0000000000000000e+00  5.1284413857689205e-02 3.7414977032102126e-03 0.0000000000000000e+00  5.1282794402406566e-02 1.9106612453083508e-03 0.0000000000000000e+00  5.1282194441769235e-02 8.1383231630438398e-05 0.0000000000000000e+00  5.1281944337583540e-02 -1.7482927738110034e-03 0.0000000000000000e+00  5.1281621651099847e-02 -3.5787674471058259e-03 0.0000000000000000e+00  </DataArray> 
</PointData> 
</Piece>
</UnstructuredGrid>
</VTKFile>