<?xml version="1.0"?>
<VTKFile type="UnstructuredGrid"  version="0.1"  >
<UnstructuredGrid>
<Piece  NumberOfPoints="135" NumberOfCells="208">
<Points>
<DataArray  type="Float64"  NumberOfComponents="3"  format="ascii">-0.05 0 0  -0.025 0 0  0 0 0  0.02500000000000001 0 0  0.05 0 0  -0.05 0.03846153846153846 0  -0.025 0.03846153846153846 0  0 0.03846153846153846 0  0.02500000000000001 0.03846153846153846 0  0.05 0.03846153846153846 0  -0.05 0.07692307692307693 0  -0.025 0.07692307692307693 0  0 0.07692307692307693 0  0.02500000000000001 0.07692307692307693 0  0.05 0.07692307692307693 0  -0.05 0.1153846153846154 0  -0.025 0.1153846153846154 0  0 0.1153846153846154 0  0.02500000000000001 0.1153846153846154 0  0.05 0.1153846153846154 0  -0.05 0.1538461538461539 0  -0.025 0.1538461538461539 0  0 0.1538461538461539 0  0.02500000000000001 0.1538461538461539 0  0.05 0.1538461538461539 0  -0.05 0.1923076923076923 0  -0.025 0.1923076923076923 0  0 0.1923076923076923 0  0.02500000000000001 0.1923076923076923 0  0.05 0.1923076923076923 0  -0.05 0.2307692307692308 0  -0.025 0.2307692307692308 0  0 0.2307692307692308 0  0.02500000000000001 0.2307692307692308 0  0.05 0.2307692307692308 0  -0.05 0.2692307692307692 0  -0.025 0.2692307692307692 0  0 0.2692307692307692 0  0.02500000000000001 0.2692307692307692 0  0.05 0.2692307692307692 0  -0.05 0.3076923076923077 0  -0.025 0.3076923076923077 0  0 0.3076923076923077 0  0.02500000000000001 0.3076923076923077 0  0.05 0.3076923076923077 0  -0.05 0.3461538461538461 0  -0.025 0.3461538461538461 0  0 0.3461538461538461 0  0.02500000000000001 0.3461538461538461 0  0.05 0.3461538461538461 0  -0.05 0.3846153846153846 0  -0.025 0.3846153846153846 0  0 0.3846153846153846 0  0.02500000000000001 0.3846153846153846 0  0.05 0.3846153846153846 0  -0.05 0.4230769230769231 0  -0.025 0.4230769230769231 0  0 0.4230769230769231 0  0.02500000000000001 0.4230769230769231 0  0.05 0.4230769230769231 0  -0.05 0.4615384615384616 0  -0.025 0.4615384615384616 0  0 0.4615384615384616 0  0.02500000000000001 0.4615384615384616 0  0.05 0.4615384615384616 0  -0.05 0.5 0  -0.025 0.5 0  0 0.5 0  0.02500000000000001 0.5 0  0.05 0.5 0  -0.05 0.5384615384615384 0  -0.025 0.5384615384615384 0  0 0.5384615384615384 0  0.02500000000000001 0.5384615384615384 0  0.05 0.5384615384615384 0  -0.05 0.5769230769230769 0  -0.025 0.5769230769230769 0  0 0.5769230769230769 0  0.02500000000000001 0.5769230769230769 0  0.05 0.5769230769230769 0  -0.05 0.6153846153846154 0  -0.025 0.6153846153846154 0  0 0.6153846153846154 0  0.02500000000000001 0.6153846153846154 0  0.05 0.6153846153846154 0  -0.05 0.6538461538461539 0  -0.025 0.6538461538461539 0  0 0.6538461538461539 0  0.02500000000000001 0.6538461538461539 0  0.05 0.6538461538461539 0  -0.05 0.6923076923076923 0  -0.025 0.6923076923076923 0  0 0.6923076923076923 0  0.02500000000000001 0.6923076923076923 0  0.05 0.6923076923076923 0  -0.05 0.7307692307692307 0  -0.025 0.7307692307692307 0  0 0.7307692307692307 0  0.02500000000000001 0.7307692307692307 0  0.05 0.7307692307692307 0  -0.05 0.7692307692307693 0  -0.025 0.7692307692307693 0  0 0.7692307692307693 0  0.02500000000000001 0.7692307692307693 0  0.05 0.7692307692307693 0  -0.05 0.8076923076923077 0  -0.025 0.8076923076923077 0  0 0.8076923076923077 0  0.02500000000000001 0.8076923076923077 0  0.05 0.8076923076923077 0  -0.05 0.8461538461538461 0  -0.025 0.8461538461538461 0  0 0.8461538461538461 0  0.02500000000000001 0.8461538461538461 0  0.05 0.8461538461538461 0  -0.05 0.8846153846153846 0  -0.025 0.8846153846153846 0  0 0.8846153846153846 0  0.02500000000000001 0.8846153846153846 0  0.05 0.8846153846153846 0  -0.05 0.9230769230769231 0  -0.025 0.9230769230769231 0  0 0.9230769230769231 0  0.02500000000000001 0.9230769230769231 0  0.05 0.9230769230769231 0  -0.05 0.9615384615384616 0  -0.025 0.9615384615384616 0  0 0.9615384615384616 0  0.02500000000000001 0.9615384615384616 0  0.05 0.9615384615384616 0  -0.05 1 0  -0.025 1 0  0 1 0  0.02500000000000001 1 0  0.05 1 0  </DataArray>
</Points>
<Cells>
<DataArray  type="UInt32"  Name="connectivity"  format="ascii">0 1 6  0 5 6  1 2 7  1 6 7  2 3 8  2 7 8  3 4 9  3 8 9  5 6 11  5 10 11  6 7 12  6 11 12  7 8 13  7 12 13  8 9 14  8 13 14  10 11 16  10 15 16  11 12 17  11 16 17  12 13 18  12 17 18  13 14 19  13 18 19  15 16 21  15 20 21  16 17 22  16 21 22  17 18 23  17 22 23  18 19 24  18 23 24  20 21 26  20 25 26  21 22 27  21 26 27  22 23 28  22 27 28  23 24 29  23 28 29  25 26 31  25 30 31  26 27 32  26 31 32  27 28 33  27 32 33  28 29 34  28 33 34  30 31 36  30 35 36  31 32 37  31 36 37  32 33 38  32 37 38  33 34 39  33 38 39  35 36 41  35 40 41  36 37 42  36 41 42  37 38 43  37 42 43  38 39 44  38 43 44  40 41 46  40 45 46  41 42 47  41 46 47  42 43 48  42 47 48  43 44 49  43 48 49  45 46 51  45 50 51  46 47 52  46 51 52  47 48 53  47 52 53  48 49 54  48 53 54  50 51 56  50 55 56  51 52 57  51 56 57  52 53 58  52 57 58  53 54 59  53 58 59  55 56 61  55 60 61  56 57 62  56 61 62  57 58 63  57 62 63  58 59 64  58 63 64  60 61 66  60 65 66  61 62 67  61 66 67  62 63 68  62 67 68  63 64 69  63 68 69  65 66 71  65 70 71  66 67 72  66 71 72  67 68 73  67 72 73  68 69 74  68 73 74  70 71 76  70 75 76  71 72 77  71 76 77  72 73 78  72 77 78  73 74 79  73 78 79  75 76 81  75 80 81  76 77 82  76 81 82  77 78 83  77 82 83  78 79 84  78 83 84  80 81 86  80 85 86  81 82 87  81 86 87  82 83 88  82 87 88  83 84 89  83 88 89  85 86 91  85 90 91  86 87 92  86 91 92  87 88 93  87 92 93  88 89 94  88 93 94  90 91 96  90 95 96  91 92 97  91 96 97  92 93 98  92 97 98  93 94 99  93 98 99  95 96 101  95 100 101  96 97 102  96 101 102  97 98 103  97 102 103  98 99 104  98 103 104  100 101 106  100 105 106  101 102 107  101 106 107  102 103 108  102 107 108  103 104 109  103 108 109  105 106 111  105 110 111  106 107 112  106 111 112  107 108 113  107 112 113  108 109 114  108 113 114  110 111 116  110 115 116  111 112 117  111 116 117  112 113 118  112 117 118  113 114 119  113 118 119  115 116 121  115 120 121  116 117 122  116 121 122  117 118 123  117 122 123  118 119 124  118 123 124  120 121 126  120 125 126  121 122 127  121 126 127  122 123 128  122 127 128  123 124 129  123 128 129  125 126 131  125 130 131  126 127 132  126 131 132  127 128 133  127 132 133  128 129 134  128 133 134  </DataArray>
<DataArray  type="UInt32"  Name="offsets"  format="ascii">3 6 9 12 15 18 21 24 27 30 33 36 39 42 45 48 51 54 57 60 63 66 69 72 75 78 81 84 87 90 93 96 99 102 105 108 111 114 117 120 123 126 129 132 135 138 141 144 147 150 153 156 159 162 165 168 171 174 177 180 183 186 189 192 195 198 201 204 207 210 213 216 219 222 225 228 231 234 237 240 243 246 249 252 255 258 261 264 267 270 273 276 279 282 285 288 291 294 297 300 303 306 309 312 315 318 321 324 327 330 333 336 339 342 345 348 351 354 357 360 363 366 369 372 375 378 381 384 387 390 393 396 399 402 405 408 411 414 417 420 423 426 429 432 435 438 441 444 447 450 453 456 459 462 465 468 471 474 477 480 483 486 489 492 495 498 501 504 507 510 513 516 519 522 525 528 531 534 537 540 543 546 549 552 555 558 561 564 567 570 573 576 579 582 585 588 591 594 597 600 603 606 609 612 615 618 621 624 </DataArray>
<DataArray  type="UInt8"  Name="types"  format="ascii">5 5 5 5 5 5 5 5 5 5 5 5 5 5 5 5 5 5 5 5 5 5 5 5 5 5 5 5 5 5 5 5 5 5 5 5 5 5 5 5 5 5 5 5 5 5 5 5 5 5 5 5 5 5 5 5 5 5 5 5 5 5 5 5 5 5 5 5 5 5 5 5 5 5 5 5 5 5 5 5 5 5 5 5 5 5 5 5 5 5 5 5 5 5 5 5 5 5 5 5 5 5 5 5 5 5 5 5 5 5 5 5 5 5 5 5 5 5 5 5 5 5 5 5 5 5 5 5 5 5 5 5 5 5 5 5 5 5 5 5 5 5 5 5 5 5 5 5 5 5 5 5 5 5 5 5 5 5 5 5 5 5 5 5 5 5 5 5 5 5 5 5 5 5 5 5 5 5 5 5 5 5 5 5 5 5 5 5 5 5 5 5 5 5 5 5 5 5 5 5 5 5 5 5 5 5 5 5 </DataArray>
</Cells>
<PointData  Vectors="Displacement"> 
<DataArray  type="Float64"  Name="Displacement"  NumberOfComponents="3" format="ascii">-4.6502612842306724e-16 4.0157695736948451e-18 0.0000000000000000e+00  0.0000000000000000e+00 0.0000000000000000e+00 0.0000000000000000e+00  0.0000000000000000e+00 0.0000000000000000e+00 0.0000000000000000e+00  -5.4438881334386714e-17 4.4705652359357740e-19 0.0000000000000000e+00  1.6331664400316015e-16 -1.3411695707807322e-18 0.0000000000000000e+00  1.1722463119880044e-04 1.6018496704711061e-04 0.0000000000000000e+00  8.2745995280730683e-05 7.4817524891599517e-05 0.0000000000000000e+00  6.9901148981265903e-05 2.4257694461485843e-07 0.0000000000000000e+00  8.0467574152491203e-05 -7.3411512847049555e-05 0.0000000000000000e+00  1.1394124536796874e-04 -1.6048614565163821e-04 0.0000000000000000e+00  3.0911318249086131e-04 3.0465816129522725e-04 0.0000000000000000e+00  2.7895976673944826e-04 1.4900312727663737e-04 0.0000000000000000e+00  2.6878326878051751e-04 7.5886819566725567e-08 0.0000000000000000e+00  2.7861314214171369e-04 -1.4853817949894309e-04 0.0000000000000000e+00  3.0844650348851518e-04 -3.0332389901573738e-04 0.0000000000000000e+00  6.0841085572600274e-04 4.3810478956128368e-04 0.0000000000000000e+00  5.7965700382865389e-04 2.1604591005111557e-04 0.0000000000000000e+00  5.6959249548514256e-04 -8.8049365419670438e-08 0.0000000000000000e+00  5.7837019491956327e-04 -2.1582070046747033e-04 0.0000000000000000e+00  6.0584663487088389e-04 -4.3665474693321203e-04 0.0000000000000000e+00  1.0014671588221729e-03 5.6172152772796934e-04 0.0000000000000000e+00  9.7443542810722594e-04 2.7875662582684175e-04 0.0000000000000000e+00  9.6490618525910100e-04 -1.4132073756399374e-07 0.0000000000000000e+00  9.7318031049141234e-04 -2.7885664379347319e-04 0.0000000000000000e+00  9.9971131148329632e-04 -5.6151188790274894e-04 0.0000000000000000e+00  1.4839359215959209e-03 6.7811688812582395e-04 0.0000000000000000e+00  1.4587341601588245e-03 3.3740100450258399e-04 0.0000000000000000e+00  1.4500261436007100e-03 -8.1992485946278539e-07 0.0000000000000000e+00  1.4586246094637635e-03 -3.3906530893974574e-04 0.0000000000000000e+00  1.4836214272703455e-03 -6.7907015210986706e-04 0.0000000000000000e+00  2.0541512629812034e-03 7.9140710392150621e-04 0.0000000000000000e+00  2.0280440539280731e-03 3.9473912142858893e-04 0.0000000000000000e+00  2.0191315817466291e-03 -1.4451871799739017e-06 0.0000000000000000e+00  2.0274580126680868e-03 -3.9725330051946812e-04 0.0000000000000000e+00  2.0522864639422639e-03 -7.9364956150435116e-04 0.0000000000000000e+00  2.7068591386865686e-03 9.0568318047425079e-04 0.0000000000000000e+00  2.6821429898258404e-03 4.5125291144305121e-04 0.0000000000000000e+00  2.6739083075961296e-03 -1.9332398798129089e-06 0.0000000000000000e+00  2.6818698233570587e-03 -4.5504749882263710e-04 0.0000000000000000e+00  2.7061533515594085e-03 -9.0848995081718254e-04 0.0000000000000000e+00  3.4521212373615096e-03 1.0191483423364837e-03 0.0000000000000000e+00  3.4265367005528462e-03 5.0722226335113017e-04 0.0000000000000000e+00  3.4179536284910726e-03 -2.4310248436911146e-06 0.0000000000000000e+00  3.4259826373976275e-03 -5.1213901052800501e-04 0.0000000000000000e+00  3.4504063442303153e-03 -1.0236050346346364e-03 0.0000000000000000e+00  4.2845551467219391e-03 1.1317677071972685e-03 0.0000000000000000e+00  4.2597828572332411e-03 5.6264140534248788e-04 0.0000000000000000e+00  4.2509898573799536e-03 -3.5857571097460596e-06 0.0000000000000000e+00  4.2584547069238043e-03 -5.6981975896684158e-04 0.0000000000000000e+00  4.2825954713630460e-03 -1.1382419193855457e-03 0.0000000000000000e+00  5.2086556782234379e-03 1.2409750542539794e-03 0.0000000000000000e+00  5.1858100543003193e-03 6.1516184618199202e-04 0.0000000000000000e+00  5.1782107992658574e-03 -4.9303230280587165e-06 0.0000000000000000e+00  5.1850607492710307e-03 -6.2481301679211696e-04 0.0000000000000000e+00  5.2073722374842745e-03 -1.2500463143324827e-03 0.0000000000000000e+00  6.2202901349027104e-03 1.3390674002139895e-03 0.0000000000000000e+00  6.1996005182934581e-03 6.6225918619206567e-04 0.0000000000000000e+00  6.1921328982909654e-03 -6.0974515281240929e-06 0.0000000000000000e+00  6.1981875679650742e-03 -6.7463559549776452e-04 0.0000000000000000e+00  6.2183757452754776e-03 -1.3510973638708192e-03 0.0000000000000000e+00  7.3045014007688779e-03 1.4200232264664522e-03 0.0000000000000000e+00  7.2890898933916709e-03 7.0135682049447486e-04 0.0000000000000000e+00  7.2837744401701380e-03 -7.4804876791219334e-06 0.0000000000000000e+00  7.2886322245628524e-03 -7.1617777332573767e-04 0.0000000000000000e+00  7.3038596474437664e-03 -1.4341455911984487e-03 0.0000000000000000e+00  8.4477283185041430e-03 1.4785510894661819e-03 0.0000000000000000e+00  8.4349436538700678e-03 7.3068443800717567e-04 0.0000000000000000e+00  8.4301080342975981e-03 -8.2304695131248129e-06 0.0000000000000000e+00  8.4339384580882117e-03 -7.4682770700983006e-04 0.0000000000000000e+00  8.4457807774895206e-03 -1.4940714420433310e-03 0.0000000000000000e+00  9.6183952345502387e-03 1.5187862758705300e-03 0.0000000000000000e+00  9.6091751290185937e-03 7.5275173319456969e-04 0.0000000000000000e+00  9.6054762585857760e-03 -8.8430211896060779e-06 0.0000000000000000e+00  9.6085614961802686e-03 -7.7000763436991084e-04 0.0000000000000000e+00  9.6171123446719270e-03 -1.5342488999710632e-03 0.0000000000000000e+00  1.0810443900020930e-02 1.5517730009891463e-03 0.0000000000000000e+00  1.0800461480306901e-02 7.7178963979571732e-04 0.0000000000000000e+00  1.0796207201429677e-02 -8.5970549399984167e-06 0.0000000000000000e+00  1.0798608299141386e-02 -7.8816753266307824e-04 0.0000000000000000e+00  1.0806596483442524e-02 -1.5663619319387146e-03 0.0000000000000000e+00  1.2016964847152695e-02 1.5880125972931270e-03 0.0000000000000000e+00  1.2006027233975973e-02 7.9177762644373783e-04 0.0000000000000000e+00  1.2001204857586866e-02 -7.7987467501451797e-06 0.0000000000000000e+00  1.2003369517116636e-02 -8.0763737259299882e-04 0.0000000000000000e+00  1.2012675997307912e-02 -1.6032554215656295e-03 0.0000000000000000e+00  1.3252694083227002e-02 1.6342792408005245e-03 0.0000000000000000e+00  1.3240366219540325e-02 8.1546777896395861e-04 0.0000000000000000e+00  1.3235650306527512e-02 -6.7922672800395836e-06 0.0000000000000000e+00  1.3238329652444073e-02 -8.3035481381384037e-04 0.0000000000000000e+00  1.3248775090115166e-02 -1.6497247289026834e-03 0.0000000000000000e+00  1.4531147789744861e-02 1.6899572124295622e-03 0.0000000000000000e+00  1.4516593077607583e-02 8.4289509665713734e-04 0.0000000000000000e+00  1.4511316922216057e-02 -5.9907390740814509e-06 0.0000000000000000e+00  1.4514785634456696e-02 -8.5609296340897329e-04 0.0000000000000000e+00  1.4527159097790409e-02 -1.7039309908116270e-03 0.0000000000000000e+00  1.5855494168696797e-02 1.7514922497119960e-03 0.0000000000000000e+00  1.5841683353629534e-02 8.7265933823569663e-04 0.0000000000000000e+00  1.5837174405338137e-02 -5.4713210737369307e-06 0.0000000000000000e+00  1.5840658887018459e-02 -8.8409981535147672e-04 0.0000000000000000e+00  1.5852733799293754e-02 -1.7626548270523561e-03 0.0000000000000000e+00  1.7235428661990609e-02 1.8138907261581146e-03 0.0000000000000000e+00  1.7220644983728630e-02 9.0283458759467467e-04 0.0000000000000000e+00  1.7215302344500121e-02 -4.4731598332459886e-06 0.0000000000000000e+00  1.7218771104999930e-02 -9.1153431629020776e-04 0.0000000000000000e+00  1.7231294691605979e-02 -1.8204814590789731e-03 0.0000000000000000e+00  1.8659339177885190e-02 1.8694663311468154e-03 0.0000000000000000e+00  1.8647356954989057e-02 9.3080982322080229e-04 0.0000000000000000e+00  1.8642564038644730e-02 -3.2776372920217450e-06 0.0000000000000000e+00  1.8644838541495658e-02 -9.3712840415766411e-04 0.0000000000000000e+00  1.8655275479509983e-02 -1.8744675063016507e-03 0.0000000000000000e+00  2.0128301237128891e-02 1.9161815551123230e-03 0.0000000000000000e+00  2.0117909597718163e-02 9.5412441685607569e-04 0.0000000000000000e+00  2.0113602246646333e-02 -2.0904386848844994e-06 0.0000000000000000e+00  2.0115631163609492e-02 -9.5807649508983131e-04 0.0000000000000000e+00  2.0124423654562011e-02 -1.9189430609628355e-03 0.0000000000000000e+00  2.1627419337280941e-02 1.9511971045040007e-03 0.0000000000000000e+00  2.1619017447513603e-02 9.7225654069365371e-04 0.0000000000000000e+00  2.1615442398502840e-02 -9.4369799892453107e-07 0.0000000000000000e+00  2.1616696521269605e-02 -9.7386615257594666e-04 0.0000000000000000e+00  2.1623140014748559e-02 -1.9512212602543540e-03 0.0000000000000000e+00  2.3146399439236635e-02 1.9767273197210029e-03 0.0000000000000000e+00  2.3140431459988373e-02 9.8642701114573929e-04 0.0000000000000000e+00  2.3137990478194773e-02 7.9051482670102277e-07 0.0000000000000000e+00  2.3138744460748546e-02 -9.8418878318298590e-04 0.0000000000000000e+00  2.3142902293127612e-02 -1.9731975944569354e-03 0.0000000000000000e+00  2.4681461550049844e-02 1.9937151683102569e-03 0.0000000000000000e+00  2.4675771173364461e-02 9.9559191253715228e-04 0.0000000000000000e+00  2.4673668141890988e-02 2.6499360061352447e-06 0.0000000000000000e+00  2.4674731471918884e-02 -9.8957224578241935e-04 0.0000000000000000e+00  2.4678796913511346e-02 -1.9834553594443370e-03 0.0000000000000000e+00  2.6216971784629499e-02 2.0001065142007802e-03 0.0000000000000000e+00  2.6214216164588897e-02 1.0016939910676885e-03 0.0000000000000000e+00  2.6211472701884290e-02 4.9399917057884987e-06 0.0000000000000000e+00  2.6210638491284206e-02 -9.9054494970761756e-04 0.0000000000000000e+00  2.6210545730574419e-02 -1.9855956614757736e-03 0.0000000000000000e+00  </DataArray> 
</PointData> 
</Piece>
</UnstructuredGrid>
</VTKFile>