<?xml version="1.0"?>
<VTKFile type="UnstructuredGrid"  version="0.1"  >
<UnstructuredGrid>
<Piece  NumberOfPoints="135" NumberOfCells="208">
<Points>
<DataArray  type="Float64"  NumberOfComponents="3"  format="ascii">-0.05 0 0  -0.025 0 0  0 0 0  0.02500000000000001 0 0  0.05 0 0  -0.05 0.03846153846153846 0  -0.025 0.03846153846153846 0  0 0.03846153846153846 0  0.02500000000000001 0.03846153846153846 0  0.05 0.03846153846153846 0  -0.05 0.07692307692307693 0  -0.025 0.07692307692307693 0  0 0.07692307692307693 0  0.02500000000000001 0.07692307692307693 0  0.05 0.07692307692307693 0  -0.05 0.1153846153846154 0  -0.025 0.1153846153846154 0  0 0.1153846153846154 0  0.02500000000000001 0.1153846153846154 0  0.05 0.1153846153846154 0  -0.05 0.1538461538461539 0  -0.025 0.1538461538461539 0  0 0.1538461538461539 0  0.02500000000000001 0.1538461538461539 0  0.05 0.1538461538461539 0  -0.05 0.1923076923076923 0  -0.025 0.1923076923076923 0  0 0.1923076923076923 0  0.02500000000000001 0.1923076923076923 0  0.05 0.1923076923076923 0  -0.05 0.2307692307692308 0  -0.025 0.2307692307692308 0  0 0.2307692307692308 0  0.02500000000000001 0.2307692307692308 0  0.05 0.2307692307692308 0  -0.05 0.2692307692307692 0  -0.025 0.2692307692307692 0  0 0.2692307692307692 0  0.02500000000000001 0.2692307692307692 0  0.05 0.2692307692307692 0  -0.05 0.3076923076923077 0  -0.025 0.3076923076923077 0  0 0.3076923076923077 0  0.02500000000000001 0.3076923076923077 0  0.05 0.3076923076923077 0  -0.05 0.3461538461538461 0  -0.025 0.3461538461538461 0  0 0.3461538461538461 0  0.02500000000000001 0.3461538461538461 0  0.05 0.3461538461538461 0  -0.05 0.3846153846153846 0  -0.025 0.3846153846153846 0  0 0.3846153846153846 0  0.02500000000000001 0.3846153846153846 0  0.05 0.3846153846153846 0  -0.05 0.4230769230769231 0  -0.025 0.4230769230769231 0  0 0.4230769230769231 0  0.02500000000000001 0.4230769230769231 0  0.05 0.4230769230769231 0  -0.05 0.4615384615384616 0  -0.025 0.4615384615384616 0  0 0.4615384615384616 0  0.02500000000000001 0.4615384615384616 0  0.05 0.4615384615384616 0  -0.05 0.5 0  -0.025 0.5 0  0 0.5 0  0.02500000000000001 0.5 0  0.05 0.5 0  -0.05 0.5384615384615384 0  -0.025 0.5384615384615384 0  0 0.5384615384615384 0  0.02500000000000001 0.5384615384615384 0  0.05 0.5384615384615384 0  -0.05 0.5769230769230769 0  -0.025 0.5769230769230769 0  0 0.5769230769230769 0  0.02500000000000001 0.5769230769230769 0  0.05 0.5769230769230769 0  -0.05 0.6153846153846154 0  -0.025 0.6153846153846154 0  0 0.6153846153846154 0  0.02500000000000001 0.6153846153846154 0  0.05 0.6153846153846154 0  -0.05 0.6538461538461539 0  -0.025 0.6538461538461539 0  0 0.6538461538461539 0  0.02500000000000001 0.6538461538461539 0  0.05 0.6538461538461539 0  -0.05 0.6923076923076923 0  -0.025 0.6923076923076923 0  0 0.6923076923076923 0  0.02500000000000001 0.6923076923076923 0  0.05 0.6923076923076923 0  -0.05 0.7307692307692307 0  -0.025 0.7307692307692307 0  0 0.7307692307692307 0  0.02500000000000001 0.7307692307692307 0  0.05 0.7307692307692307 0  -0.05 0.7692307692307693 0  -0.025 0.7692307692307693 0  0 0.7692307692307693 0  0.02500000000000001 0.7692307692307693 0  0.05 0.7692307692307693 0  -0.05 0.8076923076923077 0  -0.025 0.8076923076923077 0  0 0.8076923076923077 0  0.02500000000000001 0.8076923076923077 0  0.05 0.8076923076923077 0  -0.05 0.8461538461538461 0  -0.025 0.8461538461538461 0  0 0.8461538461538461 0  0.02500000000000001 0.8461538461538461 0  0.05 0.8461538461538461 0  -0.05 0.8846153846153846 0  -0.025 0.8846153846153846 0  0 0.8846153846153846 0  0.02500000000000001 0.8846153846153846 0  0.05 0.8846153846153846 0  -0.05 0.9230769230769231 0  -0.025 0.9230769230769231 0  0 0.9230769230769231 0  0.02500000000000001 0.9230769230769231 0  0.05 0.9230769230769231 0  -0.05 0.9615384615384616 0  -0.025 0.9615384615384616 0  0 0.9615384615384616 0  0.02500000000000001 0.9615384615384616 0  0.05 0.9615384615384616 0  -0.05 1 0  -0.025 1 0  0 1 0  0.02500000000000001 1 0  0.05 1 0  </DataArray>
</Points>
<Cells>
<DataArray  type="UInt32"  Name="connectivity"  format="ascii">0 1 6  0 5 6  1 2 7  1 6 7  2 3 8  2 7 8  3 4 9  3 8 9  5 6 11  5 10 11  6 7 12  6 11 12  7 8 13  7 12 13  8 9 14  8 13 14  10 11 16  10 15 16  11 12 17  11 16 17  12 13 18  12 17 18  13 14 19  13 18 19  15 16 21  15 20 21  16 17 22  16 21 22  17 18 23  17 22 23  18 19 24  18 23 24  20 21 26  20 25 26  21 22 27  21 26 27  22 23 28  22 27 28  23 24 29  23 28 29  25 26 31  25 30 31  26 27 32  26 31 32  27 28 33  27 32 33  28 29 34  28 33 34  30 31 36  30 35 36  31 32 37  31 36 37  32 33 38  32 37 38  33 34 39  33 38 39  35 36 41  35 40 41  36 37 42  36 41 42  37 38 43  37 42 43  38 39 44  38 43 44  40 41 46  40 45 46  41 42 47  41 46 47  42 43 48  42 47 48  43 44 49  43 48 49  45 46 51  45 50 51  46 47 52  46 51 52  47 48 53  47 52 53  48 49 54  48 53 54  50 51 56  50 55 56  51 52 57  51 56 57  52 53 58  52 57 58  53 54 59  53 58 59  55 56 61  55 60 61  56 57 62  56 61 62  57 58 63  57 62 63  58 59 64  58 63 64  60 61 66  60 65 66  61 62 67  61 66 67  62 63 68  62 67 68  63 64 69  63 68 69  65 66 71  65 70 71  66 67 72  66 71 72  67 68 73  67 72 73  68 69 74  68 73 74  70 71 76  70 75 76  71 72 77  71 76 77  72 73 78  72 77 78  73 74 79  73 78 79  75 76 81  75 80 81  76 77 82  76 81 82  77 78 83  77 82 83  78 79 84  78 83 84  80 81 86  80 85 86  81 82 87  81 86 87  82 83 88  82 87 88  83 84 89  83 88 89  85 86 91  85 90 91  86 87 92  86 91 92  87 88 93  87 92 93  88 89 94  88 93 94  90 91 96  90 95 96  91 92 97  91 96 97  92 93 98  92 97 98  93 94 99  93 98 99  95 96 101  95 100 101  96 97 102  96 101 102  97 98 103  97 102 103  98 99 104  98 103 104  100 101 106  100 105 106  101 102 107  101 106 107  102 103 108  102 107 108  103 104 109  103 108 109  105 106 111  105 110 111  106 107 112  106 111 112  107 108 113  107 112 113  108 109 114  108 113 114  110 111 116  110 115 116  111 112 117  111 116 117  112 113 118  112 117 118  113 114 119  113 118 119  115 116 121  115 120 121  116 117 122  116 121 122  117 118 123  117 122 123  118 119 124  118 123 124  120 121 126  120 125 126  121 122 127  121 126 127  122 123 128  122 127 128  123 124 129  123 128 129  125 126 131  125 130 131  126 127 132  126 131 132  127 128 133  127 132 133  128 129 134  128 133 134  </DataArray>
<DataArray  type="UInt32"  Name="offsets"  format="ascii">3 6 9 12 15 18 21 24 27 30 33 36 39 42 45 48 51 54 57 60 63 66 69 72 75 78 81 84 87 90 93 96 99 102 105 108 111 114 117 120 123 126 129 132 135 138 141 144 147 150 153 156 159 162 165 168 171 174 177 180 183 186 189 192 195 198 201 204 207 210 213 216 219 222 225 228 231 234 237 240 243 246 249 252 255 258 261 264 267 270 273 276 279 282 285 288 291 294 297 300 303 306 309 312 315 318 321 324 327 330 333 336 339 342 345 348 351 354 357 360 363 366 369 372 375 378 381 384 387 390 393 396 399 402 405 408 411 414 417 420 423 426 429 432 435 438 441 444 447 450 453 456 459 462 465 468 471 474 477 480 483 486 489 492 495 498 501 504 507 510 513 516 519 522 525 528 531 534 537 540 543 546 549 552 555 558 561 564 567 570 573 576 579 582 585 588 591 594 597 600 603 606 609 612 615 618 621 624 </DataArray>
<DataArray  type="UInt8"  Name="types"  format="ascii">5 5 5 5 5 5 5 5 5 5 5 5 5 5 5 5 5 5 5 5 5 5 5 5 5 5 5 5 5 5 5 5 5 5 5 5 5 5 5 5 5 5 5 5 5 5 5 5 5 5 5 5 5 5 5 5 5 5 5 5 5 5 5 5 5 5 5 5 5 5 5 5 5 5 5 5 5 5 5 5 5 5 5 5 5 5 5 5 5 5 5 5 5 5 5 5 5 5 5 5 5 5 5 5 5 5 5 5 5 5 5 5 5 5 5 5 5 5 5 5 5 5 5 5 5 5 5 5 5 5 5 5 5 5 5 5 5 5 5 5 5 5 5 5 5 5 5 5 5 5 5 5 5 5 5 5 5 5 5 5 5 5 5 5 5 5 5 5 5 5 5 5 5 5 5 5 5 5 5 5 5 5 5 5 5 5 5 5 5 5 5 5 5 5 5 5 5 5 5 5 5 5 5 5 5 5 5 5 </DataArray>
</Cells>
<PointData  Vectors="Displacement"> 
<DataArray  type="Float64"  Name="Displacement"  NumberOfComponents="3" format="ascii">-4.8027551142963635e-16 5.9228401803120305e-18 0.0000000000000000e+00  0.0000000000000000e+00 0.0000000000000000e+00 0.0000000000000000e+00  0.0000000000000000e+00 0.0000000000000000e+00 0.0000000000000000e+00  -5.7929438125532988e-17 1.2860580928459737e-18 0.0000000000000000e+00  1.7378831437659899e-16 -3.8581742785379213e-18 0.0000000000000000e+00  4.0648694114325373e-04 6.1194662088805130e-04 0.0000000000000000e+00  2.7790469385055496e-04 2.9001504869311488e-04 0.0000000000000000e+00  2.3142932652894376e-04 -3.6360945249707360e-06 0.0000000000000000e+00  2.7294120458951917e-04 -2.9449004632641428e-04 0.0000000000000000e+00  4.0590267332447200e-04 -6.2432862522523980e-04 0.0000000000000000e+00  1.1494230141320012e-03 1.1920746439022553e-03 0.0000000000000000e+00  1.0314972522350811e-03 5.7939784725910873e-04 0.0000000000000000e+00  9.9364559651087285e-04 -8.2570403210356583e-06 0.0000000000000000e+00  1.0346334488140572e-03 -5.9658470922401745e-04 0.0000000000000000e+00  1.1546790385782880e-03 -1.2103378344503789e-03 0.0000000000000000e+00  2.3381054526077478e-03 1.7294486876950383e-03 0.0000000000000000e+00  2.2313238704586625e-03 8.4355673270326869e-04 0.0000000000000000e+00  2.1969728490738058e-03 -1.3789759941318328e-05 0.0000000000000000e+00  2.2335684433372575e-03 -8.7121046966692382e-04 0.0000000000000000e+00  2.3433386843754490e-03 -1.7558833701688055e-03 0.0000000000000000e+00  3.9302006013222299e-03 2.2115852211838402e-03 0.0000000000000000e+00  3.8345275125868023e-03 1.0811886645943705e-03 0.0000000000000000e+00  3.8035949478115931e-03 -1.8511346107491052e-05 0.0000000000000000e+00  3.8360888606957769e-03 -1.1183258929020157e-03 0.0000000000000000e+00  3.9337683329966674e-03 -2.2480377935835019e-03 0.0000000000000000e+00  5.8752893926723353e-03 2.6348056305551468e-03 0.0000000000000000e+00  5.7934202318496086e-03 1.2901293188189984e-03 0.0000000000000000e+00  5.7668912955129324e-03 -2.2621073539544980e-05 0.0000000000000000e+00  5.7949386441713017e-03 -1.3358338700330073e-03 0.0000000000000000e+00  5.8793252035135518e-03 -2.6805739477107440e-03 0.0000000000000000e+00  8.1271262327387624e-03 2.9942920341504984e-03 0.0000000000000000e+00  8.0565875162605105e-03 1.4683639393283890e-03 0.0000000000000000e+00  8.0339683706862324e-03 -2.7321745530228347e-05 0.0000000000000000e+00  8.0584268979602830e-03 -1.5228083214239112e-03 0.0000000000000000e+00  8.1305218242223379e-03 -3.0481761462269772e-03 0.0000000000000000e+00  1.0628584630758971e-02 3.2938054978020937e-03 0.0000000000000000e+00  1.0571571744650206e-02 1.6166245222639618e-03 0.0000000000000000e+00  1.0553328073136791e-02 -3.1373566381899293e-05 0.0000000000000000e+00  1.0573193125100300e-02 -1.6795687248991609e-03 0.0000000000000000e+00  1.0632390261783411e-02 -3.3557964289913033e-03 0.0000000000000000e+00  1.3340312408498201e-02 3.5362949010539660e-03 0.0000000000000000e+00  1.3292702327990718e-02 1.7381096597526668e-03 0.0000000000000000e+00  1.3277227451854161e-02 -3.5687492675270866e-05 0.0000000000000000e+00  1.3293721283012375e-02 -1.8087356183391361e-03 0.0000000000000000e+00  1.3342794065963757e-02 -3.6057718692322147e-03 0.0000000000000000e+00  1.6209595318987757e-02 3.7322014380432298e-03 0.0000000000000000e+00  1.6171242772570576e-02 1.8362231078541320e-03 0.0000000000000000e+00  1.6159138252193617e-02 -3.9309509954177518e-05 0.0000000000000000e+00  1.6172898988521933e-02 -1.9143652403235396e-03 0.0000000000000000e+00  1.6212785924194183e-02 -3.8088859838911974e-03 0.0000000000000000e+00  1.9210317990137171e-02 3.8918053764962525e-03 0.0000000000000000e+00  1.9177761865306068e-02 1.9169017638511778e-03 0.0000000000000000e+00  1.9166653168615932e-02 -4.2617760592401326e-05 0.0000000000000000e+00  1.9177734931013806e-02 -2.0021918604470668e-03 0.0000000000000000e+00  1.9211198669548034e-02 -3.9756276332193752e-03 0.0000000000000000e+00  2.2315565314275934e-02 4.0243025843886169e-03 0.0000000000000000e+00  2.2287735847434331e-02 1.9840148485558138e-03 0.0000000000000000e+00  2.2278749206478987e-02 -4.5796811737288172e-05 0.0000000000000000e+00  2.2287695886971107e-02 -2.0754894165056353e-03 0.0000000000000000e+00  2.2315417544008696e-02 -4.1154525676384427e-03 0.0000000000000000e+00  2.5509742196668843e-02 4.1377503113661888e-03 0.0000000000000000e+00  2.5486675429105841e-02 2.0400101955854056e-03 0.0000000000000000e+00  2.5479174463292099e-02 -4.8224116959368105e-05 0.0000000000000000e+00  2.5486745521759321e-02 -2.1375737755311730e-03 0.0000000000000000e+00  2.5510746009139947e-02 -4.2356532318128092e-03 0.0000000000000000e+00  2.8786578140396708e-02 4.2353198694335212e-03 0.0000000000000000e+00  2.8764815987024885e-02 2.0888591819603901e-03 0.0000000000000000e+00  2.8758196476181937e-02 -5.1408577737096587e-05 0.0000000000000000e+00  2.8765499436751340e-02 -2.1918332179027751e-03 0.0000000000000000e+00  2.8786730183974790e-02 -4.3378014998079568e-03 0.0000000000000000e+00  3.2126767050572602e-02 4.3227136783680958e-03 0.0000000000000000e+00  3.2108027047130359e-02 2.1320574135545085e-03 0.0000000000000000e+00  3.2102250563037463e-02 -5.3897704790646792e-05 0.0000000000000000e+00  3.2108429968026556e-02 -2.2398178145554230e-03 0.0000000000000000e+00  3.2127406897992407e-02 -4.4294787562238038e-03 0.0000000000000000e+00  3.5532233759991698e-02 4.4040768292507226e-03 0.0000000000000000e+00  3.5513080614767698e-02 2.1725559098194577e-03 0.0000000000000000e+00  3.5506969096455489e-02 -5.6725735324883750e-05 0.0000000000000000e+00  3.5512999496676752e-02 -2.2859223485017853e-03 0.0000000000000000e+00  3.5531957728540724e-02 -4.5165561650521826e-03 0.0000000000000000e+00  3.8997266138417301e-02 4.4845575210778598e-03 0.0000000000000000e+00  3.8979143938560272e-02 2.2113505320179379e-03 0.0000000000000000e+00  3.8973547268194679e-02 -5.9767330017000874e-05 0.0000000000000000e+00  3.8978958130431555e-02 -2.3307737386965054e-03 0.0000000000000000e+00  3.8996957184834584e-02 -4.6028888234590443e-03 0.0000000000000000e+00  4.2529177396648167e-02 4.5631846999173147e-03 0.0000000000000000e+00  4.2512002880472813e-02 2.2484108380115518e-03 0.0000000000000000e+00  4.2506536807576246e-02 -6.2397041967421853e-05 0.0000000000000000e+00  4.2511569923298666e-02 -2.3737489538288702e-03 0.0000000000000000e+00  4.2529087812536462e-02 -4.6885240744239777e-03 0.0000000000000000e+00  4.6125481917993538e-02 4.6364260978211738e-03 0.0000000000000000e+00  4.6109142635926255e-02 2.2832085911926110e-03 0.0000000000000000e+00  4.6104588618617368e-02 -6.5022217127690490e-05 0.0000000000000000e+00  4.6109586666775469e-02 -2.4138333700947172e-03 0.0000000000000000e+00  4.6125496758458666e-02 -4.7669068239983561e-03 0.0000000000000000e+00  4.9776942146018403e-02 4.7019362130950575e-03 0.0000000000000000e+00  4.9763776749150182e-02 2.3140228413191092e-03 0.0000000000000000e+00  4.9760148588158165e-02 -6.7020953186123136e-05 0.0000000000000000e+00  4.9764675616455027e-02 -2.4484632094106317e-03 0.0000000000000000e+00  4.9778069749494593e-02 -4.8353420862116544e-03 0.0000000000000000e+00  5.3481972729493801e-02 4.7563599755937047e-03 0.0000000000000000e+00  5.3469367663330110e-02 2.3405913282966706e-03 0.0000000000000000e+00  5.3465361513288158e-02 -6.8782979022593822e-05 0.0000000000000000e+00  5.3468472243972893e-02 -2.4776573805261708e-03 0.0000000000000000e+00  5.3479716802615838e-02 -4.8914105531828334e-03 0.0000000000000000e+00  5.7219274983497756e-02 4.7983966154695641e-03 0.0000000000000000e+00  5.7210504834289473e-02 2.3616113561877369e-03 0.0000000000000000e+00  5.7207698323515292e-02 -6.9417477906111118e-05 0.0000000000000000e+00  5.7209745857786230e-02 -2.5000795856912551e-03 0.0000000000000000e+00  5.7217961725163295e-02 -4.9357018281210360e-03 0.0000000000000000e+00  6.0986557424713955e-02 4.8292461368632904e-03 0.0000000000000000e+00  6.0979094636355931e-02 2.3767224248822921e-03 0.0000000000000000e+00  6.0976711553736608e-02 -6.9926243990842295e-05 0.0000000000000000e+00  6.0977957251563172e-02 -2.5167718851113502e-03 0.0000000000000000e+00  6.0984316341602340e-02 -4.9674529757559940e-03 0.0000000000000000e+00  6.4772280563650392e-02 4.8513944445336479e-03 0.0000000000000000e+00  6.4766314789881541e-02 2.3878426006827473e-03 0.0000000000000000e+00  6.4764058207809450e-02 -6.9979027243620393e-05 0.0000000000000000e+00  6.4764360499403803e-02 -2.5278182676649226e-03 0.0000000000000000e+00  6.4768611482511215e-02 -4.9890706416024942e-03 0.0000000000000000e+00  6.8570321675073390e-02 4.8650504968327244e-03 0.0000000000000000e+00  6.8566284575040590e-02 2.3958315081406864e-03 0.0000000000000000e+00  6.8564633781811726e-02 -6.8475004776645507e-05 0.0000000000000000e+00  6.8564446388647268e-02 -2.5334020287696413e-03 0.0000000000000000e+00  6.8566489282888360e-02 -5.0024572498720424e-03 0.0000000000000000e+00  7.2376432028455229e-02 4.8742938476768567e-03 0.0000000000000000e+00  7.2371475211226638e-02 2.4013916234830990e-03 0.0000000000000000e+00  7.2370085850954932e-02 -6.7994435296809638e-05 0.0000000000000000e+00  7.2370615190844298e-02 -2.5360726469855969e-03 0.0000000000000000e+00  7.2372932604646154e-02 -5.0052905373627176e-03 0.0000000000000000e+00  7.6178735332521993e-02 4.8785923866056860e-03 0.0000000000000000e+00  7.6176665192008497e-02 2.4057403670428310e-03 0.0000000000000000e+00  7.6174752566769241e-02 -6.5610119491498771e-05 0.0000000000000000e+00  7.6172891284111435e-02 -2.5350591520074506e-03 0.0000000000000000e+00  7.6172350377926620e-02 -5.0050263285447401e-03 0.0000000000000000e+00  </DataArray> 
</PointData> 
</Piece>
</UnstructuredGrid>
</VTKFile>