<?xml version="1.0"?>
<VTKFile type="UnstructuredGrid"  version="0.1"  >
<UnstructuredGrid>
<Piece  NumberOfPoints="135" NumberOfCells="208">
<Points>
<DataArray  type="Float64"  NumberOfComponents="3"  format="ascii">-0.05 0 0  -0.025 0 0  0 0 0  0.02500000000000001 0 0  0.05 0 0  -0.05 0.03846153846153846 0  -0.025 0.03846153846153846 0  0 0.03846153846153846 0  0.02500000000000001 0.03846153846153846 0  0.05 0.03846153846153846 0  -0.05 0.07692307692307693 0  -0.025 0.07692307692307693 0  0 0.07692307692307693 0  0.02500000000000001 0.07692307692307693 0  0.05 0.07692307692307693 0  -0.05 0.1153846153846154 0  -0.025 0.1153846153846154 0  0 0.1153846153846154 0  0.02500000000000001 0.1153846153846154 0  0.05 0.1153846153846154 0  -0.05 0.1538461538461539 0  -0.025 0.1538461538461539 0  0 0.1538461538461539 0  0.02500000000000001 0.1538461538461539 0  0.05 0.1538461538461539 0  -0.05 0.1923076923076923 0  -0.025 0.1923076923076923 0  0 0.1923076923076923 0  0.02500000000000001 0.1923076923076923 0  0.05 0.1923076923076923 0  -0.05 0.2307692307692308 0  -0.025 0.2307692307692308 0  0 0.2307692307692308 0  0.02500000000000001 0.2307692307692308 0  0.05 0.2307692307692308 0  -0.05 0.2692307692307692 0  -0.025 0.2692307692307692 0  0 0.2692307692307692 0  0.02500000000000001 0.2692307692307692 0  0.05 0.2692307692307692 0  -0.05 0.3076923076923077 0  -0.025 0.3076923076923077 0  0 0.3076923076923077 0  0.02500000000000001 0.3076923076923077 0  0.05 0.3076923076923077 0  -0.05 0.3461538461538461 0  -0.025 0.3461538461538461 0  0 0.3461538461538461 0  0.02500000000000001 0.3461538461538461 0  0.05 0.3461538461538461 0  -0.05 0.3846153846153846 0  -0.025 0.3846153846153846 0  0 0.3846153846153846 0  0.02500000000000001 0.3846153846153846 0  0.05 0.3846153846153846 0  -0.05 0.4230769230769231 0  -0.025 0.4230769230769231 0  0 0.4230769230769231 0  0.02500000000000001 0.4230769230769231 0  0.05 0.4230769230769231 0  -0.05 0.4615384615384616 0  -0.025 0.4615384615384616 0  0 0.4615384615384616 0  0.02500000000000001 0.4615384615384616 0  0.05 0.4615384615384616 0  -0.05 0.5 0  -0.025 0.5 0  0 0.5 0  0.02500000000000001 0.5 0  0.05 0.5 0  -0.05 0.5384615384615384 0  -0.025 0.5384615384615384 0  0 0.5384615384615384 0  0.02500000000000001 0.5384615384615384 0  0.05 0.5384615384615384 0  -0.05 0.5769230769230769 0  -0.025 0.5769230769230769 0  0 0.5769230769230769 0  0.02500000000000001 0.5769230769230769 0  0.05 0.5769230769230769 0  -0.05 0.6153846153846154 0  -0.025 0.6153846153846154 0  0 0.6153846153846154 0  0.02500000000000001 0.6153846153846154 0  0.05 0.6153846153846154 0  -0.05 0.6538461538461539 0  -0.025 0.6538461538461539 0  0 0.6538461538461539 0  0.02500000000000001 0.6538461538461539 0  0.05 0.6538461538461539 0  -0.05 0.6923076923076923 0  -0.025 0.6923076923076923 0  0 0.6923076923076923 0  0.02500000000000001 0.6923076923076923 0  0.05 0.6923076923076923 0  -0.05 0.7307692307692307 0  -0.025 0.7307692307692307 0  0 0.7307692307692307 0  0.02500000000000001 0.7307692307692307 0  0.05 0.7307692307692307 0  -0.05 0.7692307692307693 0  -0.025 0.7692307692307693 0  0 0.7692307692307693 0  0.02500000000000001 0.7692307692307693 0  0.05 0.7692307692307693 0  -0.05 0.8076923076923077 0  -0.025 0.8076923076923077 0  0 0.8076923076923077 0  0.02500000000000001 0.8076923076923077 0  0.05 0.8076923076923077 0  -0.05 0.8461538461538461 0  -0.025 0.8461538461538461 0  0 0.8461538461538461 0  0.02500000000000001 0.8461538461538461 0  0.05 0.8461538461538461 0  -0.05 0.8846153846153846 0  -0.025 0.8846153846153846 0  0 0.8846153846153846 0  0.02500000000000001 0.8846153846153846 0  0.05 0.8846153846153846 0  -0.05 0.9230769230769231 0  -0.025 0.9230769230769231 0  0 0.9230769230769231 0  0.02500000000000001 0.9230769230769231 0  0.05 0.9230769230769231 0  -0.05 0.9615384615384616 0  -0.025 0.9615384615384616 0  0 0.9615384615384616 0  0.02500000000000001 0.9615384615384616 0  0.05 0.9615384615384616 0  -0.05 1 0  -0.025 1 0  0 1 0  0.02500000000000001 1 0  0.05 1 0  </DataArray>
</Points>
<Cells>
<DataArray  type="UInt32"  Name="connectivity"  format="ascii">0 1 6  0 5 6  1 2 7  1 6 7  2 3 8  2 7 8  3 4 9  3 8 9  5 6 11  5 10 11  6 7 12  6 11 12  7 8 13  7 12 13  8 9 14  8 13 14  10 11 16  10 15 16  11 12 17  11 16 17  12 13 18  12 17 18  13 14 19  13 18 19  15 16 21  15 20 21  16 17 22  16 21 22  17 18 23  17 22 23  18 19 24  18 23 24  20 21 26  20 25 26  21 22 27  21 26 27  22 23 28  22 27 28  23 24 29  23 28 29  25 26 31  25 30 31  26 27 32  26 31 32  27 28 33  27 32 33  28 29 34  28 33 34  30 31 36  30 35 36  31 32 37  31 36 37  32 33 38  32 37 38  33 34 39  33 38 39  35 36 41  35 40 41  36 37 42  36 41 42  37 38 43  37 42 43  38 39 44  38 43 44  40 41 46  40 45 46  41 42 47  41 46 47  42 43 48  42 47 48  43 44 49  43 48 49  45 46 51  45 50 51  46 47 52  46 51 52  47 48 53  47 52 53  48 49 54  48 53 54  50 51 56  50 55 56  51 52 57  51 56 57  52 53 58  52 57 58  53 54 59  53 58 59  55 56 61  55 60 61  56 57 62  56 61 62  57 58 63  57 62 63  58 59 64  58 63 64  60 61 66  60 65 66  61 62 67  61 66 67  62 63 68  62 67 68  63 64 69  63 68 69  65 66 71  65 70 71  66 67 72  66 71 72  67 68 73  67 72 73  68 69 74  68 73 74  70 71 76  70 75 76  71 72 77  71 76 77  72 73 78  72 77 78  73 74 79  73 78 79  75 76 81  75 80 81  76 77 82  76 81 82  77 78 83  77 82 83  78 79 84  78 83 84  80 81 86  80 85 86  81 82 87  81 86 87  82 83 88  82 87 88  83 84 89  83 88 89  85 86 91  85 90 91  86 87 92  86 91 92  87 88 93  87 92 93  88 89 94  88 93 94  90 91 96  90 95 96  91 92 97  91 96 97  92 93 98  92 97 98  93 94 99  93 98 99  95 96 101  95 100 101  96 97 102  96 101 102  97 98 103  97 102 103  98 99 104  98 103 104  100 101 106  100 105 106  101 102 107  101 106 107  102 103 108  102 107 108  103 104 109  103 108 109  105 106 111  105 110 111  106 107 112  106 111 112  107 108 113  107 112 113  108 109 114  108 113 114  110 111 116  110 115 116  111 112 117  111 116 117  112 113 118  112 117 118  113 114 119  113 118 119  115 116 121  115 120 121  116 117 122  116 121 122  117 118 123  117 122 123  118 119 124  118 123 124  120 121 126  120 125 126  121 122 127  121 126 127  122 123 128  122 127 128  123 124 129  123 128 129  125 126 131  125 130 131  126 127 132  126 131 132  127 128 133  127 132 133  128 129 134  128 133 134  </DataArray>
<DataArray  type="UInt32"  Name="offsets"  format="ascii">3 6 9 12 15 18 21 24 27 30 33 36 39 42 45 48 51 54 57 60 63 66 69 72 75 78 81 84 87 90 93 96 99 102 105 108 111 114 117 120 123 126 129 132 135 138 141 144 147 150 153 156 159 162 165 168 171 174 177 180 183 186 189 192 195 198 201 204 207 210 213 216 219 222 225 228 231 234 237 240 243 246 249 252 255 258 261 264 267 270 273 276 279 282 285 288 291 294 297 300 303 306 309 312 315 318 321 324 327 330 333 336 339 342 345 348 351 354 357 360 363 366 369 372 375 378 381 384 387 390 393 396 399 402 405 408 411 414 417 420 423 426 429 432 435 438 441 444 447 450 453 456 459 462 465 468 471 474 477 480 483 486 489 492 495 498 501 504 507 510 513 516 519 522 525 528 531 534 537 540 543 546 549 552 555 558 561 564 567 570 573 576 579 582 585 588 591 594 597 600 603 606 609 612 615 618 621 624 </DataArray>
<DataArray  type="UInt8"  Name="types"  format="ascii">5 5 5 5 5 5 5 5 5 5 5 5 5 5 5 5 5 5 5 5 5 5 5 5 5 5 5 5 5 5 5 5 5 5 5 5 5 5 5 5 5 5 5 5 5 5 5 5 5 5 5 5 5 5 5 5 5 5 5 5 5 5 5 5 5 5 5 5 5 5 5 5 5 5 5 5 5 5 5 5 5 5 5 5 5 5 5 5 5 5 5 5 5 5 5 5 5 5 5 5 5 5 5 5 5 5 5 5 5 5 5 5 5 5 5 5 5 5 5 5 5 5 5 5 5 5 5 5 5 5 5 5 5 5 5 5 5 5 5 5 5 5 5 5 5 5 5 5 5 5 5 5 5 5 5 5 5 5 5 5 5 5 5 5 5 5 5 5 5 5 5 5 5 5 5 5 5 5 5 5 5 5 5 5 5 5 5 5 5 5 5 5 5 5 5 5 5 5 5 5 5 5 5 5 5 5 5 5 </DataArray>
</Cells>
<PointData  Vectors="Displacement"> 
<DataArray  type="Float64"  Name="Displacement"  NumberOfComponents="3" format="ascii">-4.6190441897230856e-16 9.7111821617668547e-18 0.0000000000000000e+00  0.0000000000000000e+00 0.0000000000000000e+00 0.0000000000000000e+00  0.0000000000000000e+00 0.0000000000000000e+00 0.0000000000000000e+00  -5.9373680231296354e-17 2.0501229325045636e-18 0.0000000000000000e+00  1.7812104069388906e-16 -6.1503687975136912e-18 0.0000000000000000e+00  8.4652067229929601e-04 1.2783947290897742e-03 0.0000000000000000e+00  5.7882356879762772e-04 6.1322921714582353e-04 0.0000000000000000e+00  4.7937684492674028e-04 6.6101003349874416e-06 0.0000000000000000e+00  5.6285125727945030e-04 -5.9462497034446350e-04 0.0000000000000000e+00  8.3294288943939945e-04 -1.2759064228682452e-03 0.0000000000000000e+00  2.3757112839966486e-03 2.4912421300477224e-03 0.0000000000000000e+00  2.1275244285417928e-03 1.2297824779056656e-03 0.0000000000000000e+00  2.0435557550711443e-03 1.1287049292655065e-05 0.0000000000000000e+00  2.1257105625110862e-03 -1.2078082150302552e-03 0.0000000000000000e+00  2.3713851493964706e-03 -2.4719984531814216e-03 0.0000000000000000e+00  4.8138076071137098e-03 3.6304896411445613e-03 0.0000000000000000e+00  4.5844919194390184e-03 1.8010014786401364e-03 0.0000000000000000e+00  4.5071764897218567e-03 1.5770769062770105e-05 0.0000000000000000e+00  4.5824174509929020e-03 -1.7706464523426283e-03 0.0000000000000000e+00  4.8099565148696033e-03 -3.6010594037696330e-03 0.0000000000000000e+00  8.0931046148603730e-03 4.6844010422154563e-03 0.0000000000000000e+00  7.8808185337499153e-03 2.3303192919780290e-03 0.0000000000000000e+00  7.8093362595352996e-03 2.0230339708402719e-05 0.0000000000000000e+00  7.8792599662644187e-03 -2.2902681804265034e-03 0.0000000000000000e+00  8.0899191894509611e-03 -4.6456597948848089e-03 0.0000000000000000e+00  1.2146264971799407e-02 5.6535284596003592e-03 0.0000000000000000e+00  1.1953336731409154e-02 2.8165107902088380e-03 0.0000000000000000e+00  1.1888378659925808e-02 2.4176482930548816e-05 0.0000000000000000e+00  1.1951929436537410e-02 -2.7680755459449664e-03 0.0000000000000000e+00  1.2143946664893903e-02 -5.6038294328826120e-03 0.0000000000000000e+00  1.6911386917728661e-02 6.5362318809777473e-03 0.0000000000000000e+00  1.6734101872245503e-02 3.2608629512542405e-03 0.0000000000000000e+00  1.6673503852609975e-02 2.9147802473683539e-05 0.0000000000000000e+00  1.6730572703329404e-02 -3.2019949557433743e-03 0.0000000000000000e+00  1.6905177084171243e-02 -6.4779250392972493e-03 0.0000000000000000e+00  2.2312976508287868e-02 7.3351710298429724e-03 0.0000000000000000e+00  2.2155488267482280e-02 3.6626286088660229e-03 0.0000000000000000e+00  2.2102163169856193e-02 3.4375475583112559e-05 0.0000000000000000e+00  2.2153698836103065e-02 -3.5946170795158202e-03 0.0000000000000000e+00  2.2310475656121855e-02 -7.2683108189316222e-03 0.0000000000000000e+00  2.8299598878863318e-02 8.0487389441869176e-03 0.0000000000000000e+00  2.8158356507487770e-02 4.0211691106027238e-03 0.0000000000000000e+00  2.8110519987682232e-02 3.7945505749094564e-05 0.0000000000000000e+00  2.8156887902997575e-02 -3.9450477686528741e-03 0.0000000000000000e+00  2.8296264173271562e-02 -7.9725371080874609e-03 0.0000000000000000e+00  3.4793012181196965e-02 8.6753692792627488e-03 0.0000000000000000e+00  3.4670310389195005e-02 4.3382972769335426e-03 0.0000000000000000e+00  3.4627852138187656e-02 4.2446760265097987e-05 0.0000000000000000e+00  3.4667397007549026e-02 -4.2527534596251103e-03 0.0000000000000000e+00  3.4788743373480931e-02 -8.5895471969996001e-03 0.0000000000000000e+00  4.1726183818903348e-02 9.2182474835524782e-03 0.0000000000000000e+00  4.1619633007696111e-02 4.6141486478344642e-03 0.0000000000000000e+00  4.1583078380513894e-02 4.7805536100129832e-05 0.0000000000000000e+00  4.1618089215817826e-02 -4.5189051249099775e-03 0.0000000000000000e+00  4.1723259333116672e-02 -9.1237633468522882e-03 0.0000000000000000e+00  4.9034471135524761e-02 9.6887175930406716e-03 0.0000000000000000e+00  4.8940746136197810e-02 4.8547858216011165e-03 0.0000000000000000e+00  4.8908414956629495e-02 5.2164591023540103e-05 0.0000000000000000e+00  4.8939225821128869e-02 -4.7499202869320245e-03 0.0000000000000000e+00  4.9030717555428809e-02 -9.5836885798991009e-03 0.0000000000000000e+00  5.6663166785945907e-02 1.0099035518951315e-02 0.0000000000000000e+00  5.6581635687917790e-02 5.0653557456972588e-03 0.0000000000000000e+00  5.6552639343669643e-02 5.7521099248486444e-05 0.0000000000000000e+00  5.6578460772893149e-02 -4.9506999106883930e-03 0.0000000000000000e+00  5.6658009771753969e-02 -9.9835519956275320e-03 0.0000000000000000e+00  6.4574579020771156e-02 1.0461899942267440e-02 0.0000000000000000e+00  6.4499634304531039e-02 5.2533580030620572e-03 0.0000000000000000e+00  6.4473205802507080e-02 6.3562980526758405e-05 0.0000000000000000e+00  6.4496518918626122e-02 -5.1268903188855268e-03 0.0000000000000000e+00  6.4567691295093446e-02 -1.0337304777011655e-02 0.0000000000000000e+00  7.2733522983744664e-02 1.0792143959909031e-02 0.0000000000000000e+00  7.2667393648508091e-02 5.4220292655692125e-03 0.0000000000000000e+00  7.2644591157683555e-02 6.8796456277176804e-05 0.0000000000000000e+00  7.2665399674328127e-02 -5.2846539828788567e-03 0.0000000000000000e+00  7.2728849928231934e-02 -1.0654430090610950e-02 0.0000000000000000e+00  8.1132303574681694e-02 1.1091059062522911e-02 0.0000000000000000e+00  8.1071117822863234e-02 5.5749160623031939e-03 0.0000000000000000e+00  8.1049111444596811e-02 7.4776961200717222e-05 0.0000000000000000e+00  8.1066771164817308e-02 -5.4254618446630976e-03 0.0000000000000000e+00  8.1123814097342359e-02 -1.0941161826865950e-02 0.0000000000000000e+00  8.9740934336262485e-02 1.1361198395120006e-02 0.0000000000000000e+00  8.9686816320386914e-02 5.7133870050733058e-03 0.0000000000000000e+00  8.9667692118095638e-02 8.1880223676068439e-05 0.0000000000000000e+00  8.9683157013685497e-02 -5.5497758510903742e-03 0.0000000000000000e+00  8.9733464298416651e-02 -1.1198923539994613e-02 0.0000000000000000e+00  9.8544906026720142e-02 1.1600260395678959e-02 0.0000000000000000e+00  9.8498420459841945e-02 5.8345995755015659e-03 0.0000000000000000e+00  9.8482198688621903e-02 8.8125982413113236e-05 0.0000000000000000e+00  9.8495962833680242e-02 -5.6582687822164246e-03 0.0000000000000000e+00  9.8539465789497571e-02 -1.1423532226885594e-02 0.0000000000000000e+00  1.0751781744251157e-01 1.1801667079459770e-02 0.0000000000000000e+00  1.0747807957482566e-01 5.9383603580948552e-03 0.0000000000000000e+00  1.0746347915138911e-01 9.4461509494808961e-05 0.0000000000000000e+00  1.0747427953121701e-01 -5.7488137841375190e-03 0.0000000000000000e+00  1.0751008227887501e-01 -1.1611116764048239e-02 0.0000000000000000e+00  1.1662218880105440e-01 1.1964126501391739e-02 0.0000000000000000e+00  1.1659166262182197e-01 6.0237098036296424e-03 0.0000000000000000e+00  1.1657984275711095e-01 1.0160553434191883e-04 0.0000000000000000e+00  1.1658779100328226e-01 -5.8206609759417121e-03 0.0000000000000000e+00  1.1661553557796127e-01 -1.1761792033653627e-02 0.0000000000000000e+00  1.2583265986907233e-01 1.2089387861273651e-02 0.0000000000000000e+00  1.2580811715452292e-01 6.0899460111308668e-03 0.0000000000000000e+00  1.2579918140949931e-01 1.0740750158741941e-04 0.0000000000000000e+00  1.2580582211242569e-01 -5.8752886710549618e-03 0.0000000000000000e+00  1.2582714150058746e-01 -1.1874750651039059e-02 0.0000000000000000e+00  1.3511469817845684e-01 1.2181250153174710e-02 0.0000000000000000e+00  1.3509778389887753e-01 6.1398547047970290e-03 0.0000000000000000e+00  1.3509062694227847e-01 1.1297074435217313e-04 0.0000000000000000e+00  1.3509453099312665e-01 -5.9139292306646454e-03 0.0000000000000000e+00  1.3510898200489707e-01 -1.1954802631039504e-02 0.0000000000000000e+00  1.4444892981224330e-01 1.2243198828196815e-02 0.0000000000000000e+00  1.4443634314784762e-01 6.1752884482299689e-03 0.0000000000000000e+00  1.4443069496778771e-01 1.1903481369657228e-04 0.0000000000000000e+00  1.4443321513805724e-01 -5.9382706905122783e-03 0.0000000000000000e+00  1.4444278189637236e-01 -1.2007389656634535e-02 0.0000000000000000e+00  1.5380805291443089e-01 1.2283037248047883e-02 0.0000000000000000e+00  1.5379989230535182e-01 6.1990170158384705e-03 0.0000000000000000e+00  1.5379696459824382e-01 1.2293609124289611e-04 0.0000000000000000e+00  1.5379948939621899e-01 -5.9530688730097762e-03 0.0000000000000000e+00  1.5380547397355868e-01 -1.2036801196729566e-02 0.0000000000000000e+00  1.6318407978259508e-01 1.2307484089576036e-02 0.0000000000000000e+00  1.6317887742385354e-01 6.2137020127788012e-03 0.0000000000000000e+00  1.6317639839538511e-01 1.2628795291029531e-04 0.0000000000000000e+00  1.6317690706685264e-01 -5.9604616147342386e-03 0.0000000000000000e+00  1.6317974553086881e-01 -1.2052585183217788e-02 0.0000000000000000e+00  1.7256843695879862e-01 1.2320215831836711e-02 0.0000000000000000e+00  1.7256365174442911e-01 6.2233407512540034e-03 0.0000000000000000e+00  1.7256137564865065e-01 1.2989327203036312e-04 0.0000000000000000e+00  1.7256157378333309e-01 -5.9630214415196366e-03 0.0000000000000000e+00  1.7256447204495248e-01 -1.2058665062967776e-02 0.0000000000000000e+00  1.8194794219786403e-01 1.2325623606292455e-02 0.0000000000000000e+00  1.8194633825935169e-01 6.2288204750888211e-03 0.0000000000000000e+00  1.8194461759308761e-01 1.3312886085565324e-04 0.0000000000000000e+00  1.8194439300659834e-01 -5.9624489196390910e-03 0.0000000000000000e+00  1.8194437213888973e-01 -1.2059454208850091e-02 0.0000000000000000e+00  </DataArray> 
</PointData> 
</Piece>
</UnstructuredGrid>
</VTKFile>