<?xml version="1.0"?>
<VTKFile type="UnstructuredGrid"  version="0.1"  >
<UnstructuredGrid>
<Piece  NumberOfPoints="135" NumberOfCells="208">
<Points>
<DataArray  type="Float64"  NumberOfComponents="3"  format="ascii">-0.05 0 0  -0.025 0 0  0 0 0  0.02500000000000001 0 0  0.05 0 0  -0.05 0.03846153846153846 0  -0.025 0.03846153846153846 0  0 0.03846153846153846 0  0.02500000000000001 0.03846153846153846 0  0.05 0.03846153846153846 0  -0.05 0.07692307692307693 0  -0.025 0.07692307692307693 0  0 0.07692307692307693 0  0.02500000000000001 0.07692307692307693 0  0.05 0.07692307692307693 0  -0.05 0.1153846153846154 0  -0.025 0.1153846153846154 0  0 0.1153846153846154 0  0.02500000000000001 0.1153846153846154 0  0.05 0.1153846153846154 0  -0.05 0.1538461538461539 0  -0.025 0.1538461538461539 0  0 0.1538461538461539 0  0.02500000000000001 0.1538461538461539 0  0.05 0.1538461538461539 0  -0.05 0.1923076923076923 0  -0.025 0.1923076923076923 0  0 0.1923076923076923 0  0.02500000000000001 0.1923076923076923 0  0.05 0.1923076923076923 0  -0.05 0.2307692307692308 0  -0.025 0.2307692307692308 0  0 0.2307692307692308 0  0.02500000000000001 0.2307692307692308 0  0.05 0.2307692307692308 0  -0.05 0.2692307692307692 0  -0.025 0.2692307692307692 0  0 0.2692307692307692 0  0.02500000000000001 0.2692307692307692 0  0.05 0.2692307692307692 0  -0.05 0.3076923076923077 0  -0.025 0.3076923076923077 0  0 0.3076923076923077 0  0.02500000000000001 0.3076923076923077 0  0.05 0.3076923076923077 0  -0.05 0.3461538461538461 0  -0.025 0.3461538461538461 0  0 0.3461538461538461 0  0.02500000000000001 0.3461538461538461 0  0.05 0.3461538461538461 0  -0.05 0.3846153846153846 0  -0.025 0.3846153846153846 0  0 0.3846153846153846 0  0.02500000000000001 0.3846153846153846 0  0.05 0.3846153846153846 0  -0.05 0.4230769230769231 0  -0.025 0.4230769230769231 0  0 0.4230769230769231 0  0.02500000000000001 0.4230769230769231 0  0.05 0.4230769230769231 0  -0.05 0.4615384615384616 0  -0.025 0.4615384615384616 0  0 0.4615384615384616 0  0.02500000000000001 0.4615384615384616 0  0.05 0.4615384615384616 0  -0.05 0.5 0  -0.025 0.5 0  0 0.5 0  0.02500000000000001 0.5 0  0.05 0.5 0  -0.05 0.5384615384615384 0  -0.025 0.5384615384615384 0  0 0.5384615384615384 0  0.02500000000000001 0.5384615384615384 0  0.05 0.5384615384615384 0  -0.05 0.5769230769230769 0  -0.025 0.5769230769230769 0  0 0.5769230769230769 0  0.02500000000000001 0.5769230769230769 0  0.05 0.5769230769230769 0  -0.05 0.6153846153846154 0  -0.025 0.6153846153846154 0  0 0.6153846153846154 0  0.02500000000000001 0.6153846153846154 0  0.05 0.6153846153846154 0  -0.05 0.6538461538461539 0  -0.025 0.6538461538461539 0  0 0.6538461538461539 0  0.02500000000000001 0.6538461538461539 0  0.05 0.6538461538461539 0  -0.05 0.6923076923076923 0  -0.025 0.6923076923076923 0  0 0.6923076923076923 0  0.02500000000000001 0.6923076923076923 0  0.05 0.6923076923076923 0  -0.05 0.7307692307692307 0  -0.025 0.7307692307692307 0  0 0.7307692307692307 0  0.02500000000000001 0.7307692307692307 0  0.05 0.7307692307692307 0  -0.05 0.7692307692307693 0  -0.025 0.7692307692307693 0  0 0.7692307692307693 0  0.02500000000000001 0.7692307692307693 0  0.05 0.7692307692307693 0  -0.05 0.8076923076923077 0  -0.025 0.8076923076923077 0  0 0.8076923076923077 0  0.02500000000000001 0.8076923076923077 0  0.05 0.8076923076923077 0  -0.05 0.8461538461538461 0  -0.025 0.8461538461538461 0  0 0.8461538461538461 0  0.02500000000000001 0.8461538461538461 0  0.05 0.8461538461538461 0  -0.05 0.8846153846153846 0  -0.025 0.8846153846153846 0  0 0.8846153846153846 0  0.02500000000000001 0.8846153846153846 0  0.05 0.8846153846153846 0  -0.05 0.9230769230769231 0  -0.025 0.9230769230769231 0  0 0.9230769230769231 0  0.02500000000000001 0.9230769230769231 0  0.05 0.9230769230769231 0  -0.05 0.9615384615384616 0  -0.025 0.9615384615384616 0  0 0.9615384615384616 0  0.02500000000000001 0.9615384615384616 0  0.05 0.9615384615384616 0  -0.05 1 0  -0.025 1 0  0 1 0  0.02500000000000001 1 0  0.05 1 0  </DataArray>
</Points>
<Cells>
<DataArray  type="UInt32"  Name="connectivity"  format="ascii">0 1 6  0 5 6  1 2 7  1 6 7  2 3 8  2 7 8  3 4 9  3 8 9  5 6 11  5 10 11  6 7 12  6 11 12  7 8 13  7 12 13  8 9 14  8 13 14  10 11 16  10 15 16  11 12 17  11 16 17  12 13 18  12 17 18  13 14 19  13 18 19  15 16 21  15 20 21  16 17 22  16 21 22  17 18 23  17 22 23  18 19 24  18 23 24  20 21 26  20 25 26  21 22 27  21 26 27  22 23 28  22 27 28  23 24 29  23 28 29  25 26 31  25 30 31  26 27 32  26 31 32  27 28 33  27 32 33  28 29 34  28 33 34  30 31 36  30 35 36  31 32 37  31 36 37  32 33 38  32 37 38  33 34 39  33 38 39  35 36 41  35 40 41  36 37 42  36 41 42  37 38 43  37 42 43  38 39 44  38 43 44  40 41 46  40 45 46  41 42 47  41 46 47  42 43 48  42 47 48  43 44 49  43 48 49  45 46 51  45 50 51  46 47 52  46 51 52  47 48 53  47 52 53  48 49 54  48 53 54  50 51 56  50 55 56  51 52 57  51 56 57  52 53 58  52 57 58  53 54 59  53 58 59  55 56 61  55 60 61  56 57 62  56 61 62  57 58 63  57 62 63  58 59 64  58 63 64  60 61 66  60 65 66  61 62 67  61 66 67  62 63 68  62 67 68  63 64 69  63 68 69  65 66 71  65 70 71  66 67 72  66 71 72  67 68 73  67 72 73  68 69 74  68 73 74  70 71 76  70 75 76  71 72 77  71 76 77  72 73 78  72 77 78  73 74 79  73 78 79  75 76 81  75 80 81  76 77 82  76 81 82  77 78 83  77 82 83  78 79 84  78 83 84  80 81 86  80 85 86  81 82 87  81 86 87  82 83 88  82 87 88  83 84 89  83 88 89  85 86 91  85 90 91  86 87 92  86 91 92  87 88 93  87 92 93  88 89 94  88 93 94  90 91 96  90 95 96  91 92 97  91 96 97  92 93 98  92 97 98  93 94 99  93 98 99  95 96 101  95 100 101  96 97 102  96 101 102  97 98 103  97 102 103  98 99 104  98 103 104  100 101 106  100 105 106  101 102 107  101 106 107  102 103 108  102 107 108  103 104 109  103 108 109  105 106 111  105 110 111  106 107 112  106 111 112  107 108 113  107 112 113  108 109 114  108 113 114  110 111 116  110 115 116  111 112 117  111 116 117  112 113 118  112 117 118  113 114 119  113 118 119  115 116 121  115 120 121  116 117 122  116 121 122  117 118 123  117 122 123  118 119 124  118 123 124  120 121 126  120 125 126  121 122 127  121 126 127  122 123 128  122 127 128  123 124 129  123 128 129  125 126 131  125 130 131  126 127 132  126 131 132  127 128 133  127 132 133  128 129 134  128 133 134  </DataArray>
<DataArray  type="UInt32"  Name="offsets"  format="ascii">3 6 9 12 15 18 21 24 27 30 33 36 39 42 45 48 51 54 57 60 63 66 69 72 75 78 81 84 87 90 93 96 99 102 105 108 111 114 117 120 123 126 129 132 135 138 141 144 147 150 153 156 159 162 165 168 171 174 177 180 183 186 189 192 195 198 201 204 207 210 213 216 219 222 225 228 231 234 237 240 243 246 249 252 255 258 261 264 267 270 273 276 279 282 285 288 291 294 297 300 303 306 309 312 315 318 321 324 327 330 333 336 339 342 345 348 351 354 357 360 363 366 369 372 375 378 381 384 387 390 393 396 399 402 405 408 411 414 417 420 423 426 429 432 435 438 441 444 447 450 453 456 459 462 465 468 471 474 477 480 483 486 489 492 495 498 501 504 507 510 513 516 519 522 525 528 531 534 537 540 543 546 549 552 555 558 561 564 567 570 573 576 579 582 585 588 591 594 597 600 603 606 609 612 615 618 621 624 </DataArray>
<DataArray  type="UInt8"  Name="types"  format="ascii">5 5 5 5 5 5 5 5 5 5 5 5 5 5 5 5 5 5 5 5 5 5 5 5 5 5 5 5 5 5 5 5 5 5 5 5 5 5 5 5 5 5 5 5 5 5 5 5 5 5 5 5 5 5 5 5 5 5 5 5 5 5 5 5 5 5 5 5 5 5 5 5 5 5 5 5 5 5 5 5 5 5 5 5 5 5 5 5 5 5 5 5 5 5 5 5 5 5 5 5 5 5 5 5 5 5 5 5 5 5 5 5 5 5 5 5 5 5 5 5 5 5 5 5 5 5 5 5 5 5 5 5 5 5 5 5 5 5 5 5 5 5 5 5 5 5 5 5 5 5 5 5 5 5 5 5 5 5 5 5 5 5 5 5 5 5 5 5 5 5 5 5 5 5 5 5 5 5 5 5 5 5 5 5 5 5 5 5 5 5 5 5 5 5 5 5 5 5 5 5 5 5 5 5 5 5 5 5 </DataArray>
</Cells>
<PointData  Vectors="Displacement"> 
<DataArray  type="Float64"  Name="Displacement"  NumberOfComponents="3" format="ascii">-4.4806723183537040e-16 7.5723804086049538e-18 0.0000000000000000e+00  0.0000000000000000e+00 0.0000000000000000e+00 0.0000000000000000e+00  0.0000000000000000e+00 0.0000000000000000e+00 0.0000000000000000e+00  -5.7400495291835804e-17 1.4878486607071809e-18 0.0000000000000000e+00  1.7220148587550744e-16 -4.4635459821215431e-18 0.0000000000000000e+00  5.8519573303759042e-04 8.9848609171893886e-04 0.0000000000000000e+00  3.9388467596393061e-04 4.3614663618266091e-04 0.0000000000000000e+00  3.2048166111771429e-04 9.3276110692921439e-06 0.0000000000000000e+00  3.7689968276378034e-04 -4.1346860279101134e-04 0.0000000000000000e+00  5.6617169578255893e-04 -8.8563957015446565e-04 0.0000000000000000e+00  1.6435322025829431e-03 1.7631238209893439e-03 0.0000000000000000e+00  1.4641467335876357e-03 8.7981345546327291e-04 0.0000000000000000e+00  1.4025019874031592e-03 1.9673330587513483e-05 0.0000000000000000e+00  1.4587725333017243e-03 -8.4291939045874848e-04 0.0000000000000000e+00  1.6329192270912603e-03 -1.7310756734929137e-03 0.0000000000000000e+00  3.3539718669922556e-03 2.5902989734815974e-03 0.0000000000000000e+00  3.1857690186535182e-03 1.2952886126291897e-03 0.0000000000000000e+00  3.1296506892540790e-03 2.7293987186165164e-05 0.0000000000000000e+00  3.1831367258988164e-03 -1.2421178698933469e-03 0.0000000000000000e+00  3.3474756310652174e-03 -2.5377472594282874e-03 0.0000000000000000e+00  5.6794406799371856e-03 3.3656615080505437e-03 0.0000000000000000e+00  5.5215284379729647e-03 1.6865708552237983e-03 0.0000000000000000e+00  5.4677550574428972e-03 3.5424843650204823e-05 0.0000000000000000e+00  5.5164345713749731e-03 -1.6168547509751534e-03 0.0000000000000000e+00  5.6700380286948179e-03 -3.2955434716797636e-03 0.0000000000000000e+00  8.5737968708949688e-03 4.0874864066042403e-03 0.0000000000000000e+00  8.4279063988213949e-03 2.0515276456665463e-03 0.0000000000000000e+00  8.3781510582220647e-03 4.3460469913404305e-05 0.0000000000000000e+00  8.4236003132805853e-03 -1.9651147893346237e-03 0.0000000000000000e+00  8.5657261261549329e-03 -4.0018822150627159e-03 0.0000000000000000e+00  1.1998615122075298e-02 4.7551246972825983e-03 0.0000000000000000e+00  1.1862772129055461e-02 2.3894324395589426e-03 0.0000000000000000e+00  1.1816535782402526e-02 5.0811295422896451e-05 0.0000000000000000e+00  1.1859047409360036e-02 -2.2881128935682764e-03 0.0000000000000000e+00  1.1991020707863067e-02 -4.6539439219872225e-03 0.0000000000000000e+00  1.5907420772682257e-02 5.3702797311733453e-03 0.0000000000000000e+00  1.5783771201483741e-02 2.7006868625224657e-03 0.0000000000000000e+00  1.5741380053749216e-02 5.7903476087562275e-05 0.0000000000000000e+00  1.5779109242152006e-02 -2.5853760943156459e-03 0.0000000000000000e+00  1.5898931001766606e-02 -5.2543920786088921e-03 0.0000000000000000e+00  2.0266731438022323e-02 5.9323270062699622e-03 0.0000000000000000e+00  2.0153154723407861e-02 2.9855269129649615e-03 0.0000000000000000e+00  2.0114387522175925e-02 6.6138490437539778e-05 0.0000000000000000e+00  2.0148384692103623e-02 -2.8544431296596831e-03 0.0000000000000000e+00  2.0257690500405313e-02 -5.8029860614352115e-03 0.0000000000000000e+00  2.5028384666118113e-02 6.4419162131597648e-03 0.0000000000000000e+00  2.4926332982931180e-02 3.2442820810127215e-03 0.0000000000000000e+00  2.4892183905605374e-02 7.3540439653108967e-05 0.0000000000000000e+00  2.4924384477439963e-02 -3.0981933695163372e-03 0.0000000000000000e+00  2.5023118403438720e-02 -6.2970850545263635e-03 0.0000000000000000e+00  3.0157781860325420e-02 6.9006705221491783e-03 0.0000000000000000e+00  3.0066294585815497e-02 3.4771587005944750e-03 0.0000000000000000e+00  3.0035451583297200e-02 7.9582209820307245e-05 0.0000000000000000e+00  3.0064001717375721e-02 -3.3176461775277851e-03 0.0000000000000000e+00  3.0152584058615234e-02 -6.7397330679343209e-03 0.0000000000000000e+00  3.5612788851717474e-02 7.3089032872637651e-03 0.0000000000000000e+00  3.5529785957227493e-02 3.6861904047090408e-03 0.0000000000000000e+00  3.5500995724581950e-02 8.6590812758721635e-05 0.0000000000000000e+00  3.5525521580856152e-02 -3.5130754306756731e-03 0.0000000000000000e+00  3.5604601720382267e-02 -7.1351986710552076e-03 0.0000000000000000e+00  4.1348717308622183e-02 7.6729218109365628e-03 0.0000000000000000e+00  4.1276389297909895e-02 3.8728895604698333e-03 0.0000000000000000e+00  4.1251826233462782e-02 9.3188860905201650e-05 0.0000000000000000e+00  4.1274115175438768e-02 -3.6868639414543046e-03 0.0000000000000000e+00  4.1344151162215348e-02 -7.4874197554975616e-03 0.0000000000000000e+00  4.7347049685173018e-02 7.9973621119710184e-03 0.0000000000000000e+00  4.7281068781419515e-02 4.0381814971579503e-03 0.0000000000000000e+00  4.7258669717584072e-02 9.9381813952326671e-05 0.0000000000000000e+00  4.7277949002722787e-02 -3.8403784572595169e-03 0.0000000000000000e+00  4.7339981673466106e-02 -7.7993594266628731e-03 0.0000000000000000e+00  5.3570690190521832e-02 8.2852363072293354e-03 0.0000000000000000e+00  5.3513429671334142e-02 4.1857284503133852e-03 0.0000000000000000e+00  5.3493702786594433e-02 1.0531831200770313e-04 0.0000000000000000e+00  5.3510385532631703e-02 -3.9754280915680045e-03 0.0000000000000000e+00  5.3564740754379170e-02 -8.0750535584159060e-03 0.0000000000000000e+00  6.0000237825610737e-02 8.5392342273322604e-03 0.0000000000000000e+00  5.9949224567414923e-02 4.3155386939139799e-03 0.0000000000000000e+00  5.9932289402375730e-02 1.1167629657410866e-04 0.0000000000000000e+00  5.9946869612420843e-02 -4.0925311999245985e-03 0.0000000000000000e+00  5.9994118703295511e-02 -8.3164674906997423e-03 0.0000000000000000e+00  6.6604260941722795e-02 8.7575792059123442e-03 0.0000000000000000e+00  6.6561258494604258e-02 4.4276600938837384e-03 0.0000000000000000e+00  6.6546477708967669e-02 1.1720619592558237e-04 0.0000000000000000e+00  6.6558916588727840e-02 -4.1929088688043379e-03 0.0000000000000000e+00  6.6599152427487610e-02 -8.5212854521959508e-03 0.0000000000000000e+00  7.3358464108965987e-02 8.9384685776058848e-03 0.0000000000000000e+00  7.3323554350456982e-02 4.5211914197670119e-03 0.0000000000000000e+00  7.3311196200707168e-02 1.2298217711605421e-04 0.0000000000000000e+00  7.3320189770942734e-02 -4.2748536778210470e-03 0.0000000000000000e+00  7.3351947191007183e-02 -8.6910078800247308e-03 0.0000000000000000e+00  8.0232657987547307e-02 9.0819334236556266e-03 0.0000000000000000e+00  8.0204346515067873e-02 4.5962806664213793e-03 0.0000000000000000e+00  8.0194227169772495e-02 1.2884371550996875e-04 0.0000000000000000e+00  8.0200915963019662e-02 -4.3385667919393521e-03 0.0000000000000000e+00  8.0225768083627511e-02 -8.8240236865363992e-03 0.0000000000000000e+00  8.7193790850205968e-02 9.1898985880091728e-03 0.0000000000000000e+00  8.7174219103708817e-02 4.6528747129598652e-03 0.0000000000000000e+00  8.7167539483731904e-02 1.3323156988872569e-04 0.0000000000000000e+00  8.7172575143955114e-02 -4.3861102771890481e-03 0.0000000000000000e+00  8.7190417893264247e-02 -8.9224369850293139e-03 0.0000000000000000e+00  9.4224820900957129e-02 9.2649993346535908e-03 0.0000000000000000e+00  9.4210129056601269e-02 4.6932054964799559e-03 0.0000000000000000e+00  9.4204741874150955e-02 1.3770628098766247e-04 0.0000000000000000e+00  9.4207422233281227e-02 -4.4174700707511070e-03 0.0000000000000000e+00  9.4218845860667963e-02 -8.9878070520199183e-03 0.0000000000000000e+00  1.0128724685404941e-01 9.3071782967467341e-03 0.0000000000000000e+00  1.0128010199347252e-01 4.7186173886636599e-03 0.0000000000000000e+00  1.0127700351741631e-01 1.4232950086765520e-04 0.0000000000000000e+00  1.0127782773978262e-01 -4.4338483320658277e-03 0.0000000000000000e+00  1.0128317564040820e-01 -9.0219142169534732e-03 0.0000000000000000e+00  1.0836552772799241e-01 9.3232727388683507e-03 0.0000000000000000e+00  1.0836241163895431e-01 4.7294217848589523e-03 0.0000000000000000e+00  1.0836116969725471e-01 1.4529337956901042e-04 0.0000000000000000e+00  1.0836097448568548e-01 -4.4383948138461277e-03 0.0000000000000000e+00  1.0836208504249180e-01 -9.0302338680508208e-03 0.0000000000000000e+00  1.1543639141432666e-01 9.3200322790806377e-03 0.0000000000000000e+00  1.1543524659415201e-01 4.7316445270329755e-03 0.0000000000000000e+00  1.1543393155757622e-01 1.4777382543476017e-04 0.0000000000000000e+00  1.1543269679598597e-01 -4.4352191171067373e-03 0.0000000000000000e+00  1.1543150191365162e-01 -9.0210738361334794e-03 0.0000000000000000e+00  1.2248798990697950e-01 9.3109038071775823e-03 0.0000000000000000e+00  1.2248755774897389e-01 4.7312160547338640e-03 0.0000000000000000e+00  1.2248663907701074e-01 1.5069293319242558e-04 0.0000000000000000e+00  1.2248495474092097e-01 -4.4291454167680669e-03 0.0000000000000000e+00  1.2248321069120657e-01 -9.0084469315615447e-03 0.0000000000000000e+00  1.2952961748662969e-01 9.3083905708895055e-03 0.0000000000000000e+00  1.2952662406036550e-01 4.7309211613307976e-03 0.0000000000000000e+00  1.2952605988926041e-01 1.5282044066044457e-04 0.0000000000000000e+00  1.2952627437566186e-01 -4.4248457069868321e-03 0.0000000000000000e+00  1.2952716755990659e-01 -8.9998721342048303e-03 0.0000000000000000e+00  1.3656924249557992e-01 9.3116498394523097e-03 0.0000000000000000e+00  1.3656767670617276e-01 4.7336618325733238e-03 0.0000000000000000e+00  1.3656653652667086e-01 1.5454463749196395e-04 0.0000000000000000e+00  1.3656436885236314e-01 -4.4224928577670857e-03 0.0000000000000000e+00  1.3656297209126886e-01 -8.9973888058608766e-03 0.0000000000000000e+00  </DataArray> 
</PointData> 
</Piece>
</UnstructuredGrid>
</VTKFile>