<?xml version="1.0"?>
<VTKFile type="UnstructuredGrid"  version="0.1"  >
<UnstructuredGrid>
<Piece  NumberOfPoints="135" NumberOfCells="208">
<Points>
<DataArray  type="Float64"  NumberOfComponents="3"  format="ascii">-0.05 0 0  -0.025 0 0  0 0 0  0.02500000000000001 0 0  0.05 0 0  -0.05 0.03846153846153846 0  -0.025 0.03846153846153846 0  0 0.03846153846153846 0  0.02500000000000001 0.03846153846153846 0  0.05 0.03846153846153846 0  -0.05 0.07692307692307693 0  -0.025 0.07692307692307693 0  0 0.07692307692307693 0  0.02500000000000001 0.07692307692307693 0  0.05 0.07692307692307693 0  -0.05 0.1153846153846154 0  -0.025 0.1153846153846154 0  0 0.1153846153846154 0  0.02500000000000001 0.1153846153846154 0  0.05 0.1153846153846154 0  -0.05 0.1538461538461539 0  -0.025 0.1538461538461539 0  0 0.1538461538461539 0  0.02500000000000001 0.1538461538461539 0  0.05 0.1538461538461539 0  -0.05 0.1923076923076923 0  -0.025 0.1923076923076923 0  0 0.1923076923076923 0  0.02500000000000001 0.1923076923076923 0  0.05 0.1923076923076923 0  -0.05 0.2307692307692308 0  -0.025 0.2307692307692308 0  0 0.2307692307692308 0  0.02500000000000001 0.2307692307692308 0  0.05 0.2307692307692308 0  -0.05 0.2692307692307692 0  -0.025 0.2692307692307692 0  0 0.2692307692307692 0  0.02500000000000001 0.2692307692307692 0  0.05 0.2692307692307692 0  -0.05 0.3076923076923077 0  -0.025 0.3076923076923077 0  0 0.3076923076923077 0  0.02500000000000001 0.3076923076923077 0  0.05 0.3076923076923077 0  -0.05 0.3461538461538461 0  -0.025 0.3461538461538461 0  0 0.3461538461538461 0  0.02500000000000001 0.3461538461538461 0  0.05 0.3461538461538461 0  -0.05 0.3846153846153846 0  -0.025 0.3846153846153846 0  0 0.3846153846153846 0  0.02500000000000001 0.3846153846153846 0  0.05 0.3846153846153846 0  -0.05 0.4230769230769231 0  -0.025 0.4230769230769231 0  0 0.4230769230769231 0  0.02500000000000001 0.4230769230769231 0  0.05 0.4230769230769231 0  -0.05 0.4615384615384616 0  -0.025 0.4615384615384616 0  0 0.4615384615384616 0  0.02500000000000001 0.4615384615384616 0  0.05 0.4615384615384616 0  -0.05 0.5 0  -0.025 0.5 0  0 0.5 0  0.02500000000000001 0.5 0  0.05 0.5 0  -0.05 0.5384615384615384 0  -0.025 0.5384615384615384 0  0 0.5384615384615384 0  0.02500000000000001 0.5384615384615384 0  0.05 0.5384615384615384 0  -0.05 0.5769230769230769 0  -0.025 0.5769230769230769 0  0 0.5769230769230769 0  0.02500000000000001 0.5769230769230769 0  0.05 0.5769230769230769 0  -0.05 0.6153846153846154 0  -0.025 0.6153846153846154 0  0 0.6153846153846154 0  0.02500000000000001 0.6153846153846154 0  0.05 0.6153846153846154 0  -0.05 0.6538461538461539 0  -0.025 0.6538461538461539 0  0 0.6538461538461539 0  0.02500000000000001 0.6538461538461539 0  0.05 0.6538461538461539 0  -0.05 0.6923076923076923 0  -0.025 0.6923076923076923 0  0 0.6923076923076923 0  0.02500000000000001 0.6923076923076923 0  0.05 0.6923076923076923 0  -0.05 0.7307692307692307 0  -0.025 0.7307692307692307 0  0 0.7307692307692307 0  0.02500000000000001 0.7307692307692307 0  0.05 0.7307692307692307 0  -0.05 0.7692307692307693 0  -0.025 0.7692307692307693 0  0 0.7692307692307693 0  0.02500000000000001 0.7692307692307693 0  0.05 0.7692307692307693 0  -0.05 0.8076923076923077 0  -0.025 0.8076923076923077 0  0 0.8076923076923077 0  0.02500000000000001 0.8076923076923077 0  0.05 0.8076923076923077 0  -0.05 0.8461538461538461 0  -0.025 0.8461538461538461 0  0 0.8461538461538461 0  0.02500000000000001 0.8461538461538461 0  0.05 0.8461538461538461 0  -0.05 0.8846153846153846 0  -0.025 0.8846153846153846 0  0 0.8846153846153846 0  0.02500000000000001 0.8846153846153846 0  0.05 0.8846153846153846 0  -0.05 0.9230769230769231 0  -0.025 0.9230769230769231 0  0 0.9230769230769231 0  0.02500000000000001 0.9230769230769231 0  0.05 0.9230769230769231 0  -0.05 0.9615384615384616 0  -0.025 0.9615384615384616 0  0 0.9615384615384616 0  0.02500000000000001 0.9615384615384616 0  0.05 0.9615384615384616 0  -0.05 1 0  -0.025 1 0  0 1 0  0.02500000000000001 1 0  0.05 1 0  </DataArray>
</Points>
<Cells>
<DataArray  type="UInt32"  Name="connectivity"  format="ascii">0 1 6  0 5 6  1 2 7  1 6 7  2 3 8  2 7 8  3 4 9  3 8 9  5 6 11  5 10 11  6 7 12  6 11 12  7 8 13  7 12 13  8 9 14  8 13 14  10 11 16  10 15 16  11 12 17  11 16 17  12 13 18  12 17 18  13 14 19  13 18 19  15 16 21  15 20 21  16 17 22  16 21 22  17 18 23  17 22 23  18 19 24  18 23 24  20 21 26  20 25 26  21 22 27  21 26 27  22 23 28  22 27 28  23 24 29  23 28 29  25 26 31  25 30 31  26 27 32  26 31 32  27 28 33  27 32 33  28 29 34  28 33 34  30 31 36  30 35 36  31 32 37  31 36 37  32 33 38  32 37 38  33 34 39  33 38 39  35 36 41  35 40 41  36 37 42  36 41 42  37 38 43  37 42 43  38 39 44  38 43 44  40 41 46  40 45 46  41 42 47  41 46 47  42 43 48  42 47 48  43 44 49  43 48 49  45 46 51  45 50 51  46 47 52  46 51 52  47 48 53  47 52 53  48 49 54  48 53 54  50 51 56  50 55 56  51 52 57  51 56 57  52 53 58  52 57 58  53 54 59  53 58 59  55 56 61  55 60 61  56 57 62  56 61 62  57 58 63  57 62 63  58 59 64  58 63 64  60 61 66  60 65 66  61 62 67  61 66 67  62 63 68  62 67 68  63 64 69  63 68 69  65 66 71  65 70 71  66 67 72  66 71 72  67 68 73  67 72 73  68 69 74  68 73 74  70 71 76  70 75 76  71 72 77  71 76 77  72 73 78  72 77 78  73 74 79  73 78 79  75 76 81  75 80 81  76 77 82  76 81 82  77 78 83  77 82 83  78 79 84  78 83 84  80 81 86  80 85 86  81 82 87  81 86 87  82 83 88  82 87 88  83 84 89  83 88 89  85 86 91  85 90 91  86 87 92  86 91 92  87 88 93  87 92 93  88 89 94  88 93 94  90 91 96  90 95 96  91 92 97  91 96 97  92 93 98  92 97 98  93 94 99  93 98 99  95 96 101  95 100 101  96 97 102  96 101 102  97 98 103  97 102 103  98 99 104  98 103 104  100 101 106  100 105 106  101 102 107  101 106 107  102 103 108  102 107 108  103 104 109  103 108 109  105 106 111  105 110 111  106 107 112  106 111 112  107 108 113  107 112 113  108 109 114  108 113 114  110 111 116  110 115 116  111 112 117  111 116 117  112 113 118  112 117 118  113 114 119  113 118 119  115 116 121  115 120 121  116 117 122  116 121 122  117 118 123  117 122 123  118 119 124  118 123 124  120 121 126  120 125 126  121 122 127  121 126 127  122 123 128  122 127 128  123 124 129  123 128 129  125 126 131  125 130 131  126 127 132  126 131 132  127 128 133  127 132 133  128 129 134  128 133 134  </DataArray>
<DataArray  type="UInt32"  Name="offsets"  format="ascii">3 6 9 12 15 18 21 24 27 30 33 36 39 42 45 48 51 54 57 60 63 66 69 72 75 78 81 84 87 90 93 96 99 102 105 108 111 114 117 120 123 126 129 132 135 138 141 144 147 150 153 156 159 162 165 168 171 174 177 180 183 186 189 192 195 198 201 204 207 210 213 216 219 222 225 228 231 234 237 240 243 246 249 252 255 258 261 264 267 270 273 276 279 282 285 288 291 294 297 300 303 306 309 312 315 318 321 324 327 330 333 336 339 342 345 348 351 354 357 360 363 366 369 372 375 378 381 384 387 390 393 396 399 402 405 408 411 414 417 420 423 426 429 432 435 438 441 444 447 450 453 456 459 462 465 468 471 474 477 480 483 486 489 492 495 498 501 504 507 510 513 516 519 522 525 528 531 534 537 540 543 546 549 552 555 558 561 564 567 570 573 576 579 582 585 588 591 594 597 600 603 606 609 612 615 618 621 624 </DataArray>
<DataArray  type="UInt8"  Name="types"  format="ascii">5 5 5 5 5 5 5 5 5 5 5 5 5 5 5 5 5 5 5 5 5 5 5 5 5 5 5 5 5 5 5 5 5 5 5 5 5 5 5 5 5 5 5 5 5 5 5 5 5 5 5 5 5 5 5 5 5 5 5 5 5 5 5 5 5 5 5 5 5 5 5 5 5 5 5 5 5 5 5 5 5 5 5 5 5 5 5 5 5 5 5 5 5 5 5 5 5 5 5 5 5 5 5 5 5 5 5 5 5 5 5 5 5 5 5 5 5 5 5 5 5 5 5 5 5 5 5 5 5 5 5 5 5 5 5 5 5 5 5 5 5 5 5 5 5 5 5 5 5 5 5 5 5 5 5 5 5 5 5 5 5 5 5 5 5 5 5 5 5 5 5 5 5 5 5 5 5 5 5 5 5 5 5 5 5 5 5 5 5 5 5 5 5 5 5 5 5 5 5 5 5 5 5 5 5 5 5 5 </DataArray>
</Cells>
<PointData  Vectors="Displacement"> 
<DataArray  type="Float64"  Name="Displacement"  NumberOfComponents="3" format="ascii">-4.6239365615352107e-16 8.8930170013680957e-18 0.0000000000000000e+00  0.0000000000000000e+00 0.0000000000000000e+00 0.0000000000000000e+00  0.0000000000000000e+00 0.0000000000000000e+00 0.0000000000000000e+00  -5.9160388782011766e-17 1.8122149733526837e-18 0.0000000000000000e+00  1.7748116634603530e-16 -5.4366449200580519e-18 0.0000000000000000e+00  7.3284563506607826e-04 1.1151299903674953e-03 0.0000000000000000e+00  4.9862933921938002e-04 5.3359321968958181e-04 0.0000000000000000e+00  4.1311422997436552e-04 4.0361251002667201e-07 0.0000000000000000e+00  4.8841847087699702e-04 -5.2745622746934494e-04 0.0000000000000000e+00  7.2699665488959941e-04 -1.1235097886740965e-03 0.0000000000000000e+00  2.0696320857340835e-03 2.1785059767408408e-03 0.0000000000000000e+00  1.8519990352485031e-03 1.0704817136039562e-03 0.0000000000000000e+00  1.7798362706341749e-03 -1.8260665369073609e-06 0.0000000000000000e+00  1.8542002461603810e-03 -1.0733956180165604e-03 0.0000000000000000e+00  2.0724034645444619e-03 -2.1818396221971416e-03 0.0000000000000000e+00  4.2104156804285229e-03 3.1805881531429565e-03 0.0000000000000000e+00  4.0078771471812142e-03 1.5706802430185793e-03 0.0000000000000000e+00  3.9401387864693802e-03 -3.5551628511487152e-06 0.0000000000000000e+00  4.0081670142223785e-03 -1.5773640280453329e-03 0.0000000000000000e+00  4.2114763342654057e-03 -3.1868445736775932e-03 0.0000000000000000e+00  7.0931123217416164e-03 4.1110065940884967e-03 0.0000000000000000e+00  6.9051487531659158e-03 2.0357518015408286e-03 0.0000000000000000e+00  6.8427652717285153e-03 -4.9693534411849863e-06 0.0000000000000000e+00  6.9067082019220122e-03 -2.0458079125990026e-03 0.0000000000000000e+00  7.0960622542989458e-03 -4.1223030356687595e-03 0.0000000000000000e+00  1.0663459644870747e-02 4.9736752998554941e-03 0.0000000000000000e+00  1.0489950972022984e-02 2.4661208987879334e-03 0.0000000000000000e+00  1.0432789800026963e-02 -7.6088917918173890e-06 0.0000000000000000e+00  1.0492133540970975e-02 -2.4814884862586354e-03 0.0000000000000000e+00  1.0667340872291268e-02 -4.9875769794105549e-03 0.0000000000000000e+00  1.4873950614392353e-02 5.7721680597808403e-03 0.0000000000000000e+00  1.4711406051441516e-02 2.8659045007122671e-03 0.0000000000000000e+00  1.4656838335367926e-02 -9.0998582525641566e-06 0.0000000000000000e+00  1.4711005767643913e-02 -2.8837521177198190e-03 0.0000000000000000e+00  1.4873112632832598e-02 -5.7896610778464383e-03 0.0000000000000000e+00  1.9666800015543266e-02 6.5110884082643103e-03 0.0000000000000000e+00  1.9518393187788908e-02 3.2359135954594135e-03 0.0000000000000000e+00  1.9469198591475601e-02 -1.0292457918335831e-05 0.0000000000000000e+00  1.9519928780925289e-02 -3.2562888656082613e-03 0.0000000000000000e+00  1.9670280433397736e-02 -6.5318108512768171e-03 0.0000000000000000e+00  2.5010210088322816e-02 7.1955460543142438e-03 0.0000000000000000e+00  2.4871368140366393e-02 3.5772977539693480e-03 0.0000000000000000e+00  2.4825371587676413e-02 -1.2655496587585722e-05 0.0000000000000000e+00  2.4872457071798089e-02 -3.6019044801238790e-03 0.0000000000000000e+00  2.5011349674618658e-02 -7.2186225606374081e-03 0.0000000000000000e+00  3.0855570210525769e-02 7.8273617750495832e-03 0.0000000000000000e+00  3.0728298129953837e-02 3.8929902005174679e-03 0.0000000000000000e+00  3.0685201523258258e-02 -1.4286048946093664e-05 0.0000000000000000e+00  3.0727434311718673e-02 -3.9205411286201870e-03 0.0000000000000000e+00  3.0855289157996981e-02 -7.8537933417777636e-03 0.0000000000000000e+00  3.7167388855980220e-02 8.4062308493138352e-03 0.0000000000000000e+00  3.7050906625037475e-02 4.1825586741259628e-03 0.0000000000000000e+00  3.7011750028340271e-02 -1.4894841982410151e-05 0.0000000000000000e+00  3.7050755478344286e-02 -4.2128284254132177e-03 0.0000000000000000e+00  3.7167630902817952e-02 -8.4375535343746561e-03 0.0000000000000000e+00  4.3906164424790103e-02 8.9352947732283597e-03 0.0000000000000000e+00  4.3800024213385053e-02 4.4461402233044560e-03 0.0000000000000000e+00  4.3765111836882330e-02 -1.6555869092944468e-05 0.0000000000000000e+00  4.3801039347551037e-02 -4.4792972257889519e-03 0.0000000000000000e+00  4.3907296680290156e-02 -8.9689388519675513e-03 0.0000000000000000e+00  5.1032567592351807e-02 9.4133965807768252e-03 0.0000000000000000e+00  5.0937892922040179e-02 4.6842644322425044e-03 0.0000000000000000e+00  5.0906209274751701e-02 -1.8073128742837877e-05 0.0000000000000000e+00  5.0938206476512246e-02 -4.7201499646013266e-03 0.0000000000000000e+00  5.1033610351967927e-02 -9.4480012167530436e-03 0.0000000000000000e+00  5.8508773182488691e-02 9.8395542444079977e-03 0.0000000000000000e+00  5.8422671463113966e-02 4.8982044191227684e-03 0.0000000000000000e+00  5.8393221345911170e-02 -1.8750337596851738e-05 0.0000000000000000e+00  5.8421523330302080e-02 -4.9355303158098501e-03 0.0000000000000000e+00  5.8506947074564643e-02 -9.8773898665851824e-03 0.0000000000000000e+00  6.6283890988347527e-02 1.0217971178872654e-02 0.0000000000000000e+00  6.6208542049514860e-02 5.0885380447070246e-03 0.0000000000000000e+00  6.6183470429773725e-02 -1.9860526933332965e-05 0.0000000000000000e+00  6.6209725673978689e-02 -5.1283710378129477e-03 0.0000000000000000e+00  6.6285943771946951e-02 -1.0258161169872177e-02 0.0000000000000000e+00  7.4333088939255179e-02 1.0555152951982984e-02 0.0000000000000000e+00  7.4264806962168362e-02 5.2579532416295836e-03 0.0000000000000000e+00  7.4241617522247588e-02 -2.1334372060500586e-05 0.0000000000000000e+00  7.4264431229472835e-02 -5.3008625736779722e-03 0.0000000000000000e+00  7.4332651710980718e-02 -1.0597500303042618e-02 0.0000000000000000e+00  8.2621192621799025e-02 1.0858739496552324e-02 0.0000000000000000e+00  8.2559471208920196e-02 5.4105084659636128e-03 0.0000000000000000e+00  8.2538550585570636e-02 -2.1515974408847599e-05 0.0000000000000000e+00  8.2558905866277066e-02 -5.4543107680303576e-03 0.0000000000000000e+00  8.2619827284824032e-02 -1.0903531342308424e-02 0.0000000000000000e+00  9.1129183261967714e-02 1.1132855380019501e-02 0.0000000000000000e+00  9.1074333795652149e-02 5.5479644513659167e-03 0.0000000000000000e+00  9.1056343181579583e-02 -2.1629929121914479e-05 0.0000000000000000e+00  9.1074827092855956e-02 -5.5922968754688633e-03 0.0000000000000000e+00  9.1129424489970981e-02 -1.1178122764050972e-02 0.0000000000000000e+00  9.9840118442891673e-02 1.1379328699158276e-02 0.0000000000000000e+00  9.9790153906612070e-02 5.6701310899752088e-03 0.0000000000000000e+00  9.9773500503391399e-02 -2.2266109734340240e-05 0.0000000000000000e+00  9.9789530843348323e-02 -5.7143772925386301e-03 0.0000000000000000e+00  9.9837915613985348e-02 -1.1422299236361361e-02 0.0000000000000000e+00  1.0872525637512589e-01 1.1593580044476198e-02 0.0000000000000000e+00  1.0868354651708681e-01 5.7783982016225829e-03 0.0000000000000000e+00  1.0866884041275535e-01 -2.0816211420696348e-05 0.0000000000000000e+00  1.0868187893874519e-01 -5.8207102665379217e-03 0.0000000000000000e+00  1.0872331843628856e-01 -1.1636651827169869e-02 0.0000000000000000e+00  1.1776682395879075e-01 1.1776845778827700e-02 0.0000000000000000e+00  1.1773006626944291e-01 5.8700246741472482e-03 0.0000000000000000e+00  1.1771769205993932e-01 -1.9523783094272014e-05 0.0000000000000000e+00  1.1772945577246854e-01 -5.9104644973614149e-03 0.0000000000000000e+00  1.1776467849305078e-01 -1.1818375419448223e-02 0.0000000000000000e+00  1.2693413122133093e-01 1.1928650610532105e-02 0.0000000000000000e+00  1.2690540720289115e-01 5.9459246339887807e-03 0.0000000000000000e+00  1.2689576851947623e-01 -1.8991208019853148e-05 0.0000000000000000e+00  1.2690525084886373e-01 -5.9840955418858531e-03 0.0000000000000000e+00  1.2693313626335861e-01 -1.1965948275772213e-02 0.0000000000000000e+00  1.3620918097989082e-01 1.2045296586955509e-02 0.0000000000000000e+00  1.3618698997482903e-01 6.0051494521460380e-03 0.0000000000000000e+00  1.3617864561668791e-01 -1.6869574606567538e-05 0.0000000000000000e+00  1.3618456112251162e-01 -6.0396235218044556e-03 0.0000000000000000e+00  1.3620503809560416e-01 -1.2080203529459554e-02 0.0000000000000000e+00  1.4555454094533088e-01 1.2126766695262487e-02 0.0000000000000000e+00  1.4553942012450555e-01 6.0476496068414291e-03 0.0000000000000000e+00  1.4553458613109879e-01 -1.5034544720899199e-05 0.0000000000000000e+00  1.4554023964339977e-01 -6.0777925499320941e-03 0.0000000000000000e+00  1.4555434317172780e-01 -1.2157733124233249e-02 0.0000000000000000e+00  1.5494327634857888e-01 1.2174612550916572e-02 0.0000000000000000e+00  1.5493559818875163e-01 6.0729201112421655e-03 0.0000000000000000e+00  1.5493295775031368e-01 -1.4240203966406272e-05 0.0000000000000000e+00  1.5493589338774980e-01 -6.1010432484503805e-03 0.0000000000000000e+00  1.5494320491100860e-01 -1.2199544413227608e-02 0.0000000000000000e+00  1.6435229619891994e-01 1.2194849891171788e-02 0.0000000000000000e+00  1.6434611127692098e-01 6.0865181761875524e-03 0.0000000000000000e+00  1.6434303113932136e-01 -1.2291634596744007e-05 0.0000000000000000e+00  1.6434372711725811e-01 -6.1105011783726239e-03 0.0000000000000000e+00  1.6434790301121138e-01 -1.2216354359079962e-02 0.0000000000000000e+00  1.7374979289556675e-01 1.2199261653144921e-02 0.0000000000000000e+00  1.7374732195980053e-01 6.0935516998861083e-03 0.0000000000000000e+00  1.7374502115066021e-01 -9.1153721044224344e-06 0.0000000000000000e+00  1.7374558446204219e-01 -6.1120470678418777e-03 0.0000000000000000e+00  1.7374667412223585e-01 -1.2218197970369922e-02 0.0000000000000000e+00  </DataArray> 
</PointData> 
</Piece>
</UnstructuredGrid>
</VTKFile>