<?xml version="1.0"?>
<VTKFile type="UnstructuredGrid"  version="0.1"  >
<UnstructuredGrid>
<Piece  NumberOfPoints="135" NumberOfCells="208">
<Points>
<DataArray  type="Float64"  NumberOfComponents="3"  format="ascii">-0.05 0 0  -0.025 0 0  0 0 0  0.02500000000000001 0 0  0.05 0 0  -0.05 0.03846153846153846 0  -0.025 0.03846153846153846 0  0 0.03846153846153846 0  0.02500000000000001 0.03846153846153846 0  0.05 0.03846153846153846 0  -0.05 0.07692307692307693 0  -0.025 0.07692307692307693 0  0 0.07692307692307693 0  0.02500000000000001 0.07692307692307693 0  0.05 0.07692307692307693 0  -0.05 0.1153846153846154 0  -0.025 0.1153846153846154 0  0 0.1153846153846154 0  0.02500000000000001 0.1153846153846154 0  0.05 0.1153846153846154 0  -0.05 0.1538461538461539 0  -0.025 0.1538461538461539 0  0 0.1538461538461539 0  0.02500000000000001 0.1538461538461539 0  0.05 0.1538461538461539 0  -0.05 0.1923076923076923 0  -0.025 0.1923076923076923 0  0 0.1923076923076923 0  0.02500000000000001 0.1923076923076923 0  0.05 0.1923076923076923 0  -0.05 0.2307692307692308 0  -0.025 0.2307692307692308 0  0 0.2307692307692308 0  0.02500000000000001 0.2307692307692308 0  0.05 0.2307692307692308 0  -0.05 0.2692307692307692 0  -0.025 0.2692307692307692 0  0 0.2692307692307692 0  0.02500000000000001 0.2692307692307692 0  0.05 0.2692307692307692 0  -0.05 0.3076923076923077 0  -0.025 0.3076923076923077 0  0 0.3076923076923077 0  0.02500000000000001 0.3076923076923077 0  0.05 0.3076923076923077 0  -0.05 0.3461538461538461 0  -0.025 0.3461538461538461 0  0 0.3461538461538461 0  0.02500000000000001 0.3461538461538461 0  0.05 0.3461538461538461 0  -0.05 0.3846153846153846 0  -0.025 0.3846153846153846 0  0 0.3846153846153846 0  0.02500000000000001 0.3846153846153846 0  0.05 0.3846153846153846 0  -0.05 0.4230769230769231 0  -0.025 0.4230769230769231 0  0 0.4230769230769231 0  0.02500000000000001 0.4230769230769231 0  0.05 0.4230769230769231 0  -0.05 0.4615384615384616 0  -0.025 0.4615384615384616 0  0 0.4615384615384616 0  0.02500000000000001 0.4615384615384616 0  0.05 0.4615384615384616 0  -0.05 0.5 0  -0.025 0.5 0  0 0.5 0  0.02500000000000001 0.5 0  0.05 0.5 0  -0.05 0.5384615384615384 0  -0.025 0.5384615384615384 0  0 0.5384615384615384 0  0.02500000000000001 0.5384615384615384 0  0.05 0.5384615384615384 0  -0.05 0.5769230769230769 0  -0.025 0.5769230769230769 0  0 0.5769230769230769 0  0.02500000000000001 0.5769230769230769 0  0.05 0.5769230769230769 0  -0.05 0.6153846153846154 0  -0.025 0.6153846153846154 0  0 0.6153846153846154 0  0.02500000000000001 0.6153846153846154 0  0.05 0.6153846153846154 0  -0.05 0.6538461538461539 0  -0.025 0.6538461538461539 0  0 0.6538461538461539 0  0.02500000000000001 0.6538461538461539 0  0.05 0.6538461538461539 0  -0.05 0.6923076923076923 0  -0.025 0.6923076923076923 0  0 0.6923076923076923 0  0.02500000000000001 0.6923076923076923 0  0.05 0.6923076923076923 0  -0.05 0.7307692307692307 0  -0.025 0.7307692307692307 0  0 0.7307692307692307 0  0.02500000000000001 0.7307692307692307 0  0.05 0.7307692307692307 0  -0.05 0.7692307692307693 0  -0.025 0.7692307692307693 0  0 0.7692307692307693 0  0.02500000000000001 0.7692307692307693 0  0.05 0.7692307692307693 0  -0.05 0.8076923076923077 0  -0.025 0.8076923076923077 0  0 0.8076923076923077 0  0.02500000000000001 0.8076923076923077 0  0.05 0.8076923076923077 0  -0.05 0.8461538461538461 0  -0.025 0.8461538461538461 0  0 0.8461538461538461 0  0.02500000000000001 0.8461538461538461 0  0.05 0.8461538461538461 0  -0.05 0.8846153846153846 0  -0.025 0.8846153846153846 0  0 0.8846153846153846 0  0.02500000000000001 0.8846153846153846 0  0.05 0.8846153846153846 0  -0.05 0.9230769230769231 0  -0.025 0.9230769230769231 0  0 0.9230769230769231 0  0.02500000000000001 0.9230769230769231 0  0.05 0.9230769230769231 0  -0.05 0.9615384615384616 0  -0.025 0.9615384615384616 0  0 0.9615384615384616 0  0.02500000000000001 0.9615384615384616 0  0.05 0.9615384615384616 0  -0.05 1 0  -0.025 1 0  0 1 0  0.02500000000000001 1 0  0.05 1 0  </DataArray>
</Points>
<Cells>
<DataArray  type="UInt32"  Name="connectivity"  format="ascii">0 1 6  0 5 6  1 2 7  1 6 7  2 3 8  2 7 8  3 4 9  3 8 9  5 6 11  5 10 11  6 7 12  6 11 12  7 8 13  7 12 13  8 9 14  8 13 14  10 11 16  10 15 16  11 12 17  11 16 17  12 13 18  12 17 18  13 14 19  13 18 19  15 16 21  15 20 21  16 17 22  16 21 22  17 18 23  17 22 23  18 19 24  18 23 24  20 21 26  20 25 26  21 22 27  21 26 27  22 23 28  22 27 28  23 24 29  23 28 29  25 26 31  25 30 31  26 27 32  26 31 32  27 28 33  27 32 33  28 29 34  28 33 34  30 31 36  30 35 36  31 32 37  31 36 37  32 33 38  32 37 38  33 34 39  33 38 39  35 36 41  35 40 41  36 37 42  36 41 42  37 38 43  37 42 43  38 39 44  38 43 44  40 41 46  40 45 46  41 42 47  41 46 47  42 43 48  42 47 48  43 44 49  43 48 49  45 46 51  45 50 51  46 47 52  46 51 52  47 48 53  47 52 53  48 49 54  48 53 54  50 51 56  50 55 56  51 52 57  51 56 57  52 53 58  52 57 58  53 54 59  53 58 59  55 56 61  55 60 61  56 57 62  56 61 62  57 58 63  57 62 63  58 59 64  58 63 64  60 61 66  60 65 66  61 62 67  61 66 67  62 63 68  62 67 68  63 64 69  63 68 69  65 66 71  65 70 71  66 67 72  66 71 72  67 68 73  67 72 73  68 69 74  68 73 74  70 71 76  70 75 76  71 72 77  71 76 77  72 73 78  72 77 78  73 74 79  73 78 79  75 76 81  75 80 81  76 77 82  76 81 82  77 78 83  77 82 83  78 79 84  78 83 84  80 81 86  80 85 86  81 82 87  81 86 87  82 83 88  82 87 88  83 84 89  83 88 89  85 86 91  85 90 91  86 87 92  86 91 92  87 88 93  87 92 93  88 89 94  88 93 94  90 91 96  90 95 96  91 92 97  91 96 97  92 93 98  92 97 98  93 94 99  93 98 99  95 96 101  95 100 101  96 97 102  96 101 102  97 98 103  97 102 103  98 99 104  98 103 104  100 101 106  100 105 106  101 102 107  101 106 107  102 103 108  102 107 108  103 104 109  103 108 109  105 106 111  105 110 111  106 107 112  106 111 112  107 108 113  107 112 113  108 109 114  108 113 114  110 111 116  110 115 116  111 112 117  111 116 117  112 113 118  112 117 118  113 114 119  113 118 119  115 116 121  115 120 121  116 117 122  116 121 122  117 118 123  117 122 123  118 119 124  118 123 124  120 121 126  120 125 126  121 122 127  121 126 127  122 123 128  122 127 128  123 124 129  123 128 129  125 126 131  125 130 131  126 127 132  126 131 132  127 128 133  127 132 133  128 129 134  128 133 134  </DataArray>
<DataArray  type="UInt32"  Name="offsets"  format="ascii">3 6 9 12 15 18 21 24 27 30 33 36 39 42 45 48 51 54 57 60 63 66 69 72 75 78 81 84 87 90 93 96 99 102 105 108 111 114 117 120 123 126 129 132 135 138 141 144 147 150 153 156 159 162 165 168 171 174 177 180 183 186 189 192 195 198 201 204 207 210 213 216 219 222 225 228 231 234 237 240 243 246 249 252 255 258 261 264 267 270 273 276 279 282 285 288 291 294 297 300 303 306 309 312 315 318 321 324 327 330 333 336 339 342 345 348 351 354 357 360 363 366 369 372 375 378 381 384 387 390 393 396 399 402 405 408 411 414 417 420 423 426 429 432 435 438 441 444 447 450 453 456 459 462 465 468 471 474 477 480 483 486 489 492 495 498 501 504 507 510 513 516 519 522 525 528 531 534 537 540 543 546 549 552 555 558 561 564 567 570 573 576 579 582 585 588 591 594 597 600 603 606 609 612 615 618 621 624 </DataArray>
<DataArray  type="UInt8"  Name="types"  format="ascii">5 5 5 5 5 5 5 5 5 5 5 5 5 5 5 5 5 5 5 5 5 5 5 5 5 5 5 5 5 5 5 5 5 5 5 5 5 5 5 5 5 5 5 5 5 5 5 5 5 5 5 5 5 5 5 5 5 5 5 5 5 5 5 5 5 5 5 5 5 5 5 5 5 5 5 5 5 5 5 5 5 5 5 5 5 5 5 5 5 5 5 5 5 5 5 5 5 5 5 5 5 5 5 5 5 5 5 5 5 5 5 5 5 5 5 5 5 5 5 5 5 5 5 5 5 5 5 5 5 5 5 5 5 5 5 5 5 5 5 5 5 5 5 5 5 5 5 5 5 5 5 5 5 5 5 5 5 5 5 5 5 5 5 5 5 5 5 5 5 5 5 5 5 5 5 5 5 5 5 5 5 5 5 5 5 5 5 5 5 5 5 5 5 5 5 5 5 5 5 5 5 5 5 5 5 5 5 5 </DataArray>
</Cells>
<PointData  Vectors="Displacement"> 
<DataArray  type="Float64"  Name="Displacement"  NumberOfComponents="3" format="ascii">-4.4589447804948798e-16 7.3018072708432511e-18 0.0000000000000000e+00  0.0000000000000000e+00 0.0000000000000000e+00 0.0000000000000000e+00  0.0000000000000000e+00 0.0000000000000000e+00 0.0000000000000000e+00  -5.7881933843208982e-17 1.5731564179828149e-18 0.0000000000000000e+00  1.7364580152962695e-16 -4.7194692539484447e-18 0.0000000000000000e+00  6.0232194935794692e-04 9.2701200598822127e-04 0.0000000000000000e+00  4.0554759280934081e-04 4.5003571646593031e-04 0.0000000000000000e+00  3.3175653673724623e-04 1.0975252641515875e-05 0.0000000000000000e+00  3.9092206576732923e-04 -4.2365185520160581e-04 0.0000000000000000e+00  5.8511112543394581e-04 -9.1104561958615135e-04 0.0000000000000000e+00  1.6957821936510267e-03 1.8179695427552047e-03 0.0000000000000000e+00  1.5112389231147442e-03 9.0657219022773495e-04 0.0000000000000000e+00  1.4479218080411388e-03 2.1457689419142554e-05 0.0000000000000000e+00  1.5064586212199457e-03 -8.6420069468393752e-04 0.0000000000000000e+00  1.6850763684452506e-03 -1.7768117762556792e-03 0.0000000000000000e+00  3.4567583085304832e-03 2.6665479256898165e-03 0.0000000000000000e+00  3.2825192716676062e-03 1.3362461900481330e-03 0.0000000000000000e+00  3.2227098368511242e-03 3.1640716867675629e-05 0.0000000000000000e+00  3.2766483269995299e-03 -1.2735292000892347e-03 0.0000000000000000e+00  3.4445996339158048e-03 -2.6039884628241338e-03 0.0000000000000000e+00  5.8410619499982049e-03 3.4659627588483118e-03 0.0000000000000000e+00  5.6775556621381767e-03 1.7410437295034117e-03 0.0000000000000000e+00  5.6220982909580145e-03 4.1655893888688384e-05 0.0000000000000000e+00  5.6730889372872528e-03 -1.6578297201504694e-03 0.0000000000000000e+00  5.8312555252354598e-03 -3.3828376261650539e-03 0.0000000000000000e+00  8.8129235491833796e-03 4.2171638915510659e-03 0.0000000000000000e+00  8.6592965753932525e-03 2.1219910064815000e-03 0.0000000000000000e+00  8.6061348263655035e-03 5.1590885218366578e-05 0.0000000000000000e+00  8.6540409747386370e-03 -2.0186370103328351e-03 0.0000000000000000e+00  8.8019255288408274e-03 -4.1127735022100861e-03 0.0000000000000000e+00  1.2331770238120170e-02 4.9193380013167216e-03 0.0000000000000000e+00  1.2186163727776774e-02 2.4806941134389933e-03 0.0000000000000000e+00  1.2135536078137648e-02 6.1877335310857047e-05 0.0000000000000000e+00  1.2179776859402655e-02 -2.3572467024594273e-03 0.0000000000000000e+00  1.2319005428844060e-02 -4.7956722428366761e-03 0.0000000000000000e+00  1.6356783199388849e-02 5.5839720267272918e-03 0.0000000000000000e+00  1.6219696032643977e-02 2.8193490283082733e-03 0.0000000000000000e+00  1.6172685426166917e-02 7.1986554907140798e-05 0.0000000000000000e+00  1.6215014632551910e-02 -2.6758231486307825e-03 0.0000000000000000e+00  1.6346541802240367e-02 -5.4415806997085391e-03 0.0000000000000000e+00  2.0874026847845700e-02 6.2177748548835890e-03 0.0000000000000000e+00  2.0743032822056695e-02 3.1406959959326382e-03 0.0000000000000000e+00  2.0698446799114003e-02 8.1049851131119254e-05 0.0000000000000000e+00  2.0738636133096698e-02 -2.9784135280848277e-03 0.0000000000000000e+00  2.0863906445435412e-02 -6.0543222741278671e-03 0.0000000000000000e+00  2.5860577254064737e-02 6.8199296078545772e-03 0.0000000000000000e+00  2.5736921696022211e-02 3.4454683132643877e-03 0.0000000000000000e+00  2.5694083731749435e-02 9.1076801136784794e-05 0.0000000000000000e+00  2.5730953361419728e-02 -3.2636989231253992e-03 0.0000000000000000e+00  2.5848688931067752e-02 -6.6379150006286919e-03 0.0000000000000000e+00  3.1294149104736636e-02 7.3856776030742591e-03 0.0000000000000000e+00  3.1178947872008065e-02 3.7326435042902145e-03 0.0000000000000000e+00  3.1139346556609493e-02 1.0114212971073693e-04 0.0000000000000000e+00  3.1173901510876699e-02 -3.5308405321596531e-03 0.0000000000000000e+00  3.1283427274616186e-02 -7.1850506893766427e-03 0.0000000000000000e+00  3.7145098341782902e-02 7.9089178897778171e-03 0.0000000000000000e+00  3.7039318409862632e-02 3.9968073679156509e-03 0.0000000000000000e+00  3.7003431640441918e-02 1.0981466436520487e-04 0.0000000000000000e+00  3.7035314080469943e-02 -3.7773438451195224e-03 0.0000000000000000e+00  3.7136149403683504e-02 -7.6890546766745548e-03 0.0000000000000000e+00  4.3378923433439860e-02 8.3851873106273542e-03 0.0000000000000000e+00  4.3283755642248761e-02 4.2383329385843405e-03 0.0000000000000000e+00  4.3250389797338043e-02 1.1884663214894448e-04 0.0000000000000000e+00  4.3278484471046798e-02 -4.0008769539498510e-03 0.0000000000000000e+00  4.3368648640859812e-02 -8.1474128698354811e-03 0.0000000000000000e+00  4.9956438156672126e-02 8.8080789665077944e-03 0.0000000000000000e+00  4.9871695339932270e-02 4.4543053276618226e-03 0.0000000000000000e+00  4.9842362372505840e-02 1.2803379191890152e-04 0.0000000000000000e+00  4.9867076060422628e-02 -4.1989311158562312e-03 0.0000000000000000e+00  4.9946900453728522e-02 -8.5541726211130521e-03 0.0000000000000000e+00  5.6830826588121962e-02 9.1771200965786066e-03 0.0000000000000000e+00  5.6758817866909478e-02 4.6418488240482156e-03 0.0000000000000000e+00  5.6734103567310915e-02 1.3566954480125179e-04 0.0000000000000000e+00  5.6756062759535847e-02 -4.3711317357301889e-03 0.0000000000000000e+00  5.6824467776568729e-02 -8.9063501907621061e-03 0.0000000000000000e+00  6.3964269698027029e-02 9.4886089990574470e-03 0.0000000000000000e+00  6.3902514996420801e-02 4.8024961230701104e-03 0.0000000000000000e+00  6.3880283205336508e-02 1.4293625908970894e-04 0.0000000000000000e+00  6.3897729048795551e-02 -4.5168402196170002e-03 0.0000000000000000e+00  6.3954833848942322e-02 -9.2024378616498894e-03 0.0000000000000000e+00  7.1301319594454252e-02 9.7460380342935197e-03 0.0000000000000000e+00  7.1250473140143877e-02 4.9365042850245313e-03 0.0000000000000000e+00  7.1232388407260497e-02 1.5041239093883799e-04 0.0000000000000000e+00  7.1246838381222699e-02 -4.6365540911944836e-03 0.0000000000000000e+00  7.1293947301198854e-02 -9.4475636410920050e-03 0.0000000000000000e+00  7.8807379986532325e-02 9.9579801391458059e-03 0.0000000000000000e+00  7.8765506640993382e-02 5.0469961796277951e-03 0.0000000000000000e+00  7.8751024099860970e-02 1.5599927889307233e-04 0.0000000000000000e+00  7.8763885099000133e-02 -4.7350395770281170e-03 0.0000000000000000e+00  7.8802309771645207e-02 -9.6455499938086706e-03 0.0000000000000000e+00  8.6449593157283233e-02 1.0132160999685899e-02 0.0000000000000000e+00  8.6413127266079581e-02 5.1392601572838653e-03 0.0000000000000000e+00  8.6399682543591719e-02 1.6142978000375366e-04 0.0000000000000000e+00  8.6409190996378310e-02 -4.8159124630238713e-03 0.0000000000000000e+00  8.6441451359469498e-02 -9.8071655638119325e-03 0.0000000000000000e+00  9.4198359249668198e-02 1.0280382113538792e-02 0.0000000000000000e+00  9.4168086474701304e-02 5.2180297965296520e-03 0.0000000000000000e+00  9.4157247997109478e-02 1.6784729867143334e-04 0.0000000000000000e+00  9.4165354977456983e-02 -4.8825877171954305e-03 0.0000000000000000e+00  9.4192081404019148e-02 -9.9454337162091649e-03 0.0000000000000000e+00  1.0204910444391331e-01 1.0408411063244909e-02 0.0000000000000000e+00  1.0202237488367780e-01 5.2849501210296872e-03 0.0000000000000000e+00  1.0201327641734570e-01 1.7286762773964544e-04 0.0000000000000000e+00  1.0202049180764200e-01 -4.9388861646150767e-03 0.0000000000000000e+00  1.0204357772608327e-01 -1.0061451370514873e-02 0.0000000000000000e+00  1.0998432422024891e-01 1.0514599252531842e-02 0.0000000000000000e+00  1.0996364610332904e-01 5.3396610143410898e-03 0.0000000000000000e+00  1.0995609826319638e-01 1.7788754764010609e-04 0.0000000000000000e+00  1.0996048314802803e-01 -4.9839362096042537e-03 0.0000000000000000e+00  1.0997804326383932e-01 -1.0157632186679540e-02 0.0000000000000000e+00  1.1799183715077124e-01 1.0595233262179697e-02 0.0000000000000000e+00  1.1797603204222461e-01 5.3830096904158697e-03 0.0000000000000000e+00  1.1797020656835100e-01 1.8336650884647596e-04 0.0000000000000000e+00  1.1797355058290375e-01 -5.0169175713842126e-03 0.0000000000000000e+00  1.1798650307733861e-01 -1.0229710686927618e-02 0.0000000000000000e+00  1.2604422923416009e-01 1.0650199063676511e-02 0.0000000000000000e+00  1.2603317803840952e-01 5.4130437514482328e-03 0.0000000000000000e+00  1.2602942895231997e-01 1.8739128540065108e-04 0.0000000000000000e+00  1.2603206732045294e-01 -5.0388132710144206e-03 0.0000000000000000e+00  1.2604092230958813e-01 -1.0275883598983220e-02 0.0000000000000000e+00  1.3412271072884951e-01 1.0683076032359008e-02 0.0000000000000000e+00  1.3411624413217998e-01 5.4326864977607622e-03 0.0000000000000000e+00  1.3411355585521140e-01 1.9074649120795814e-04 0.0000000000000000e+00  1.3411505797548184e-01 -5.0515742334884288e-03 0.0000000000000000e+00  1.3411946045996487e-01 -1.0301515930833231e-02 0.0000000000000000e+00  1.4221397761992796e-01 1.0699162136997765e-02 0.0000000000000000e+00  1.4220840538894397e-01 5.4438185998713111e-03 0.0000000000000000e+00  1.4220598891930880e-01 1.9388311145278759e-04 0.0000000000000000e+00  1.4220672124776257e-01 -5.0565802591325650e-03 0.0000000000000000e+00  1.4221004504939475e-01 -1.0310560395438732e-02 0.0000000000000000e+00  1.5029868776157296e-01 1.0704219045353744e-02 0.0000000000000000e+00  1.5029667053503246e-01 5.4499940823694365e-03 0.0000000000000000e+00  1.5029533791239019e-01 1.9690003585599709e-04 0.0000000000000000e+00  1.5029548317261313e-01 -5.0568513554509727e-03 0.0000000000000000e+00  1.5029652309471209e-01 -1.0312283486467299e-02 0.0000000000000000e+00  </DataArray> 
</PointData> 
</Piece>
</UnstructuredGrid>
</VTKFile>