<?xml version="1.0"?>
<VTKFile type="UnstructuredGrid"  version="0.1"  >
<UnstructuredGrid>
<Piece  NumberOfPoints="135" NumberOfCells="208">
<Points>
<DataArray  type="Float64"  NumberOfComponents="3"  format="ascii">-0.05 0 0  -0.025 0 0  0 0 0  0.02500000000000001 0 0  0.05 0 0  -0.05 0.03846153846153846 0  -0.025 0.03846153846153846 0  0 0.03846153846153846 0  0.02500000000000001 0.03846153846153846 0  0.05 0.03846153846153846 0  -0.05 0.07692307692307693 0  -0.025 0.07692307692307693 0  0 0.07692307692307693 0  0.02500000000000001 0.07692307692307693 0  0.05 0.07692307692307693 0  -0.05 0.1153846153846154 0  -0.025 0.1153846153846154 0  0 0.1153846153846154 0  0.02500000000000001 0.1153846153846154 0  0.05 0.1153846153846154 0  -0.05 0.1538461538461539 0  -0.025 0.1538461538461539 0  0 0.1538461538461539 0  0.02500000000000001 0.1538461538461539 0  0.05 0.1538461538461539 0  -0.05 0.1923076923076923 0  -0.025 0.1923076923076923 0  0 0.1923076923076923 0  0.02500000000000001 0.1923076923076923 0  0.05 0.1923076923076923 0  -0.05 0.2307692307692308 0  -0.025 0.2307692307692308 0  0 0.2307692307692308 0  0.02500000000000001 0.2307692307692308 0  0.05 0.2307692307692308 0  -0.05 0.2692307692307692 0  -0.025 0.2692307692307692 0  0 0.2692307692307692 0  0.02500000000000001 0.2692307692307692 0  0.05 0.2692307692307692 0  -0.05 0.3076923076923077 0  -0.025 0.3076923076923077 0  0 0.3076923076923077 0  0.02500000000000001 0.3076923076923077 0  0.05 0.3076923076923077 0  -0.05 0.3461538461538461 0  -0.025 0.3461538461538461 0  0 0.3461538461538461 0  0.02500000000000001 0.3461538461538461 0  0.05 0.3461538461538461 0  -0.05 0.3846153846153846 0  -0.025 0.3846153846153846 0  0 0.3846153846153846 0  0.02500000000000001 0.3846153846153846 0  0.05 0.3846153846153846 0  -0.05 0.4230769230769231 0  -0.025 0.4230769230769231 0  0 0.4230769230769231 0  0.02500000000000001 0.4230769230769231 0  0.05 0.4230769230769231 0  -0.05 0.4615384615384616 0  -0.025 0.4615384615384616 0  0 0.4615384615384616 0  0.02500000000000001 0.4615384615384616 0  0.05 0.4615384615384616 0  -0.05 0.5 0  -0.025 0.5 0  0 0.5 0  0.02500000000000001 0.5 0  0.05 0.5 0  -0.05 0.5384615384615384 0  -0.025 0.5384615384615384 0  0 0.5384615384615384 0  0.02500000000000001 0.5384615384615384 0  0.05 0.5384615384615384 0  -0.05 0.5769230769230769 0  -0.025 0.5769230769230769 0  0 0.5769230769230769 0  0.02500000000000001 0.5769230769230769 0  0.05 0.5769230769230769 0  -0.05 0.6153846153846154 0  -0.025 0.6153846153846154 0  0 0.6153846153846154 0  0.02500000000000001 0.6153846153846154 0  0.05 0.6153846153846154 0  -0.05 0.6538461538461539 0  -0.025 0.6538461538461539 0  0 0.6538461538461539 0  0.02500000000000001 0.6538461538461539 0  0.05 0.6538461538461539 0  -0.05 0.6923076923076923 0  -0.025 0.6923076923076923 0  0 0.6923076923076923 0  0.02500000000000001 0.6923076923076923 0  0.05 0.6923076923076923 0  -0.05 0.7307692307692307 0  -0.025 0.7307692307692307 0  0 0.7307692307692307 0  0.02500000000000001 0.7307692307692307 0  0.05 0.7307692307692307 0  -0.05 0.7692307692307693 0  -0.025 0.7692307692307693 0  0 0.7692307692307693 0  0.02500000000000001 0.7692307692307693 0  0.05 0.7692307692307693 0  -0.05 0.8076923076923077 0  -0.025 0.8076923076923077 0  0 0.8076923076923077 0  0.02500000000000001 0.8076923076923077 0  0.05 0.8076923076923077 0  -0.05 0.8461538461538461 0  -0.025 0.8461538461538461 0  0 0.8461538461538461 0  0.02500000000000001 0.8461538461538461 0  0.05 0.8461538461538461 0  -0.05 0.8846153846153846 0  -0.025 0.8846153846153846 0  0 0.8846153846153846 0  0.02500000000000001 0.8846153846153846 0  0.05 0.8846153846153846 0  -0.05 0.9230769230769231 0  -0.025 0.9230769230769231 0  0 0.9230769230769231 0  0.02500000000000001 0.9230769230769231 0  0.05 0.9230769230769231 0  -0.05 0.9615384615384616 0  -0.025 0.9615384615384616 0  0 0.9615384615384616 0  0.02500000000000001 0.9615384615384616 0  0.05 0.9615384615384616 0  -0.05 1 0  -0.025 1 0  0 1 0  0.02500000000000001 1 0  0.05 1 0  </DataArray>
</Points>
<Cells>
<DataArray  type="UInt32"  Name="connectivity"  format="ascii">0 1 6  0 5 6  1 2 7  1 6 7  2 3 8  2 7 8  3 4 9  3 8 9  5 6 11  5 10 11  6 7 12  6 11 12  7 8 13  7 12 13  8 9 14  8 13 14  10 11 16  10 15 16  11 12 17  11 16 17  12 13 18  12 17 18  13 14 19  13 18 19  15 16 21  15 20 21  16 17 22  16 21 22  17 18 23  17 22 23  18 19 24  18 23 24  20 21 26  20 25 26  21 22 27  21 26 27  22 23 28  22 27 28  23 24 29  23 28 29  25 26 31  25 30 31  26 27 32  26 31 32  27 28 33  27 32 33  28 29 34  28 33 34  30 31 36  30 35 36  31 32 37  31 36 37  32 33 38  32 37 38  33 34 39  33 38 39  35 36 41  35 40 41  36 37 42  36 41 42  37 38 43  37 42 43  38 39 44  38 43 44  40 41 46  40 45 46  41 42 47  41 46 47  42 43 48  42 47 48  43 44 49  43 48 49  45 46 51  45 50 51  46 47 52  46 51 52  47 48 53  47 52 53  48 49 54  48 53 54  50 51 56  50 55 56  51 52 57  51 56 57  52 53 58  52 57 58  53 54 59  53 58 59  55 56 61  55 60 61  56 57 62  56 61 62  57 58 63  57 62 63  58 59 64  58 63 64  60 61 66  60 65 66  61 62 67  61 66 67  62 63 68  62 67 68  63 64 69  63 68 69  65 66 71  65 70 71  66 67 72  66 71 72  67 68 73  67 72 73  68 69 74  68 73 74  70 71 76  70 75 76  71 72 77  71 76 77  72 73 78  72 77 78  73 74 79  73 78 79  75 76 81  75 80 81  76 77 82  76 81 82  77 78 83  77 82 83  78 79 84  78 83 84  80 81 86  80 85 86  81 82 87  81 86 87  82 83 88  82 87 88  83 84 89  83 88 89  85 86 91  85 90 91  86 87 92  86 91 92  87 88 93  87 92 93  88 89 94  88 93 94  90 91 96  90 95 96  91 92 97  91 96 97  92 93 98  92 97 98  93 94 99  93 98 99  95 96 101  95 100 101  96 97 102  96 101 102  97 98 103  97 102 103  98 99 104  98 103 104  100 101 106  100 105 106  101 102 107  101 106 107  102 103 108  102 107 108  103 104 109  103 108 109  105 106 111  105 110 111  106 107 112  106 111 112  107 108 113  107 112 113  108 109 114  108 113 114  110 111 116  110 115 116  111 112 117  111 116 117  112 113 118  112 117 118  113 114 119  113 118 119  115 116 121  115 120 121  116 117 122  116 121 122  117 118 123  117 122 123  118 119 124  118 123 124  120 121 126  120 125 126  121 122 127  121 126 127  122 123 128  122 127 128  123 124 129  123 128 129  125 126 131  125 130 131  126 127 132  126 131 132  127 128 133  127 132 133  128 129 134  128 133 134  </DataArray>
<DataArray  type="UInt32"  Name="offsets"  format="ascii">3 6 9 12 15 18 21 24 27 30 33 36 39 42 45 48 51 54 57 60 63 66 69 72 75 78 81 84 87 90 93 96 99 102 105 108 111 114 117 120 123 126 129 132 135 138 141 144 147 150 153 156 159 162 165 168 171 174 177 180 183 186 189 192 195 198 201 204 207 210 213 216 219 222 225 228 231 234 237 240 243 246 249 252 255 258 261 264 267 270 273 276 279 282 285 288 291 294 297 300 303 306 309 312 315 318 321 324 327 330 333 336 339 342 345 348 351 354 357 360 363 366 369 372 375 378 381 384 387 390 393 396 399 402 405 408 411 414 417 420 423 426 429 432 435 438 441 444 447 450 453 456 459 462 465 468 471 474 477 480 483 486 489 492 495 498 501 504 507 510 513 516 519 522 525 528 531 534 537 540 543 546 549 552 555 558 561 564 567 570 573 576 579 582 585 588 591 594 597 600 603 606 609 612 615 618 621 624 </DataArray>
<DataArray  type="UInt8"  Name="types"  format="ascii">5 5 5 5 5 5 5 5 5 5 5 5 5 5 5 5 5 5 5 5 5 5 5 5 5 5 5 5 5 5 5 5 5 5 5 5 5 5 5 5 5 5 5 5 5 5 5 5 5 5 5 5 5 5 5 5 5 5 5 5 5 5 5 5 5 5 5 5 5 5 5 5 5 5 5 5 5 5 5 5 5 5 5 5 5 5 5 5 5 5 5 5 5 5 5 5 5 5 5 5 5 5 5 5 5 5 5 5 5 5 5 5 5 5 5 5 5 5 5 5 5 5 5 5 5 5 5 5 5 5 5 5 5 5 5 5 5 5 5 5 5 5 5 5 5 5 5 5 5 5 5 5 5 5 5 5 5 5 5 5 5 5 5 5 5 5 5 5 5 5 5 5 5 5 5 5 5 5 5 5 5 5 5 5 5 5 5 5 5 5 5 5 5 5 5 5 5 5 5 5 5 5 5 5 5 5 5 5 </DataArray>
</Cells>
<PointData  Vectors="Displacement"> 
<DataArray  type="Float64"  Name="Displacement"  NumberOfComponents="3" format="ascii">-4.3982024087744079e-16 5.5226732245636480e-18 0.0000000000000000e+00  0.0000000000000000e+00 0.0000000000000000e+00 0.0000000000000000e+00  0.0000000000000000e+00 0.0000000000000000e+00 0.0000000000000000e+00  -5.4628318471501779e-17 8.1237727346561956e-19 0.0000000000000000e+00  1.6388495541450534e-16 -2.4371318203968589e-18 0.0000000000000000e+00  2.9682070263928686e-04 4.7383008189103975e-04 0.0000000000000000e+00  1.9302877220022904e-04 2.3510889570035551e-04 0.0000000000000000e+00  1.5320700980579901e-04 9.7175046007230327e-06 0.0000000000000000e+00  1.8298811461859020e-04 -2.1308443100253937e-04 0.0000000000000000e+00  2.8239281151897091e-04 -4.5590841128710603e-04 0.0000000000000000e+00  8.4160604283562432e-04 9.4364884359266822e-04 0.0000000000000000e+00  7.4160065319930533e-04 4.7833500195904635e-04 0.0000000000000000e+00  7.0681075351336031e-04 1.9872615301591947e-05 0.0000000000000000e+00  7.3629366539129529e-04 -4.3832840540751537e-04 0.0000000000000000e+00  8.2978381911034873e-04 -9.0290017267624526e-04 0.0000000000000000e+00  1.7409334758006648e-03 1.4050633396793333e-03 0.0000000000000000e+00  1.6442182957257926e-03 7.1346780369526514e-04 0.0000000000000000e+00  1.6103419396392353e-03 3.0142817431727115e-05 0.0000000000000000e+00  1.6380516546609498e-03 -6.5278391670897369e-04 0.0000000000000000e+00  1.7287320021571715e-03 -1.3437303797841490e-03 0.0000000000000000e+00  2.9832156516539149e-03 1.8518246207053204e-03 0.0000000000000000e+00  2.8890410359225776e-03 9.4152465570682088e-04 0.0000000000000000e+00  2.8560682580281572e-03 4.0253780687468795e-05 0.0000000000000000e+00  2.8833840934998226e-03 -8.6092858073501559e-04 0.0000000000000000e+00  2.9710906737025291e-03 -1.7708936985806397e-03 0.0000000000000000e+00  4.5576716609226431e-03 2.2826676122942773e-03 0.0000000000000000e+00  4.4684897708749689e-03 1.1609205749143854e-03 0.0000000000000000e+00  4.4372352051890163e-03 4.9624397731669537e-05 0.0000000000000000e+00  4.4626142196189031e-03 -1.0610363103250025e-03 0.0000000000000000e+00  4.5461764273894865e-03 -2.1810785572386224e-03 0.0000000000000000e+00  6.4532027812754912e-03 2.6934141590412926e-03 0.0000000000000000e+00  6.3663716857931072e-03 1.3717911529164642e-03 0.0000000000000000e+00  6.3352313743254632e-03 6.0698144303774266e-05 0.0000000000000000e+00  6.3590303746889872e-03 -1.2507453257213114e-03 0.0000000000000000e+00  6.4389753012417360e-03 -2.5725277872305323e-03 0.0000000000000000e+00  8.6442461860656468e-03 3.0835760286038053e-03 0.0000000000000000e+00  8.5640376940019688e-03 1.5720289587039609e-03 0.0000000000000000e+00  8.5359446460946901e-03 7.1250458027301332e-05 0.0000000000000000e+00  8.5588533997766249e-03 -1.4299555488925507e-03 0.0000000000000000e+00  8.6336454642863252e-03 -2.9417903377234006e-03 0.0000000000000000e+00  1.1124712415704195e-02 3.4524801150908301e-03 0.0000000000000000e+00  1.1046910070895857e-02 1.7610755404747339e-03 0.0000000000000000e+00  1.1019513432812263e-02 8.1229787717702824e-05 0.0000000000000000e+00  1.1041164550042264e-02 -1.5989501218215459e-03 0.0000000000000000e+00  1.1112126037248243e-02 -3.2897577649639602e-03 0.0000000000000000e+00  1.3869795126638124e-02 3.8019507156160245e-03 0.0000000000000000e+00  1.3796894416444362e-02 1.9412501785801394e-03 0.0000000000000000e+00  1.3770537242878855e-02 9.1474833573421319e-05 0.0000000000000000e+00  1.3789896047133297e-02 -1.7583972679712896e-03 0.0000000000000000e+00  1.3856529557186992e-02 -3.6184482446241948e-03 0.0000000000000000e+00  1.6870975200048322e-02 4.1309979283380722e-03 0.0000000000000000e+00  1.6802646277815192e-02 2.1103638014559637e-03 0.0000000000000000e+00  1.6778208919361264e-02 1.0177719908033764e-04 0.0000000000000000e+00  1.6796729008647527e-02 -1.9076713593147675e-03 0.0000000000000000e+00  1.6859424368470509e-02 -3.9298431724091266e-03 0.0000000000000000e+00  2.0111800133710351e-02 4.4377968875701640e-03 0.0000000000000000e+00  2.0048078440149490e-02 2.2674028925830612e-03 0.0000000000000000e+00  2.0025866152588879e-02 1.1019515564829572e-04 0.0000000000000000e+00  2.0043503844754375e-02 -2.0474895336841476e-03 0.0000000000000000e+00  2.0101509810503394e-02 -4.2174956255871488e-03 0.0000000000000000e+00  2.3573545683015548e-02 4.7180171540351914e-03 0.0000000000000000e+00  2.3517051397160791e-02 2.4107561240377423e-03 0.0000000000000000e+00  2.3496584112269694e-02 1.1834756617850321e-04 0.0000000000000000e+00  2.3511145670891628e-02 -2.1739797448776330e-03 0.0000000000000000e+00  2.3562799378628922e-02 -4.4806784100990173e-03 0.0000000000000000e+00  2.7238979616110638e-02 4.9691068135068886e-03 0.0000000000000000e+00  2.7186797358370918e-02 2.5400052252653560e-03 0.0000000000000000e+00  2.7168252853386237e-02 1.2671881551015377e-04 0.0000000000000000e+00  2.7182055727666993e-02 -2.2870593170309273e-03 0.0000000000000000e+00  2.7228968235218289e-02 -4.7172066506548944e-03 0.0000000000000000e+00  3.1078195843079928e-02 5.1898623600565557e-03 0.0000000000000000e+00  3.1035241255619246e-02 2.6527774973113985e-03 0.0000000000000000e+00  3.1020416440450477e-02 1.3301461888159445e-04 0.0000000000000000e+00  3.1032350389196536e-02 -2.3862847627806449e-03 0.0000000000000000e+00  3.1072058299787344e-02 -4.9225479754254767e-03 0.0000000000000000e+00  3.5076314574980276e-02 5.3740249841283004e-03 0.0000000000000000e+00  3.5039351696441498e-02 2.7476150038024333e-03 0.0000000000000000e+00  3.5025634353408330e-02 1.3938139133604606e-04 0.0000000000000000e+00  3.5034799448701942e-02 -2.4687554277812731e-03 0.0000000000000000e+00  3.5067774717311234e-02 -5.0941169186098055e-03 0.0000000000000000e+00  3.9191739645356570e-02 5.5210240409713255e-03 0.0000000000000000e+00  3.9162700396078866e-02 2.8254227454063510e-03 0.0000000000000000e+00  3.9152088474256393e-02 1.4573834241921515e-04 0.0000000000000000e+00  3.9159305166127312e-02 -2.5344907761927237e-03 0.0000000000000000e+00  3.9185118125511668e-02 -5.2309660320443846e-03 0.0000000000000000e+00  4.3401937168016991e-02 5.6360882000695287e-03 0.0000000000000000e+00  4.3379841464181779e-02 2.8850143673613700e-03 0.0000000000000000e+00  4.3372190454967083e-02 1.5019793404066393e-04 0.0000000000000000e+00  4.3377775418842579e-02 -2.5849612105574554e-03 0.0000000000000000e+00  4.3397273806497064e-02 -5.3355088360123462e-03 0.0000000000000000e+00  4.7687133727739694e-02 5.7217827229230495e-03 0.0000000000000000e+00  4.7669615007733888e-02 2.9303556355653763e-03 0.0000000000000000e+00  4.7662792963724381e-02 1.5485966919184753e-04 0.0000000000000000e+00  4.7665961727543150e-02 -2.6210164933464257e-03 0.0000000000000000e+00  4.7679829364884928e-02 -5.4114876958325517e-03 0.0000000000000000e+00  5.2019309536254985e-02 5.7782556980049329e-03 0.0000000000000000e+00  5.2009737976678322e-02 2.9614746138549586e-03 0.0000000000000000e+00  5.2005767402299827e-02 1.5962419891570544e-04 0.0000000000000000e+00  5.2007078876935425e-02 -2.6425328047237494e-03 0.0000000000000000e+00  5.2014481884625402e-02 -5.4601921387729012e-03 0.0000000000000000e+00  5.6382682632810523e-02 5.8037600981670368e-03 0.0000000000000000e+00  5.6377864042293509e-02 2.9761681047120888e-03 0.0000000000000000e+00  5.6376049257659246e-02 1.6287728412517271e-04 0.0000000000000000e+00  5.6376358427836504e-02 -2.6504289375448055e-03 0.0000000000000000e+00  5.6378586865512816e-02 -5.4765289800755342e-03 0.0000000000000000e+00  6.0740222552873376e-02 5.7993435231592149e-03 0.0000000000000000e+00  6.0741498137855648e-02 2.9782429211387888e-03 0.0000000000000000e+00  6.0740912403249109e-02 1.6606549385483996e-04 0.0000000000000000e+00  6.0739259211803412e-02 -2.6457045999283466e-03 0.0000000000000000e+00  6.0736064680430656e-02 -5.4654572381079699e-03 0.0000000000000000e+00  6.5077119387898869e-02 5.7766657905483822e-03 0.0000000000000000e+00  6.5079635294399321e-02 2.9709652539685041e-03 0.0000000000000000e+00  6.5079531850287031e-02 1.6936360635338738e-04 0.0000000000000000e+00  6.5077013387865007e-02 -2.6323522523223515e-03 0.0000000000000000e+00  6.5071705399849092e-02 -5.4373747625437409e-03 0.0000000000000000e+00  6.9378927165576906e-02 5.7499197366061633e-03 0.0000000000000000e+00  6.9381011419186137e-02 2.9618123488121687e-03 0.0000000000000000e+00  6.9381448250612307e-02 1.7260555214075908e-04 0.0000000000000000e+00  6.9379439539242235e-02 -2.6172763545079889e-03 0.0000000000000000e+00  6.9374868549587479e-02 -5.4047209301922704e-03 0.0000000000000000e+00  7.3652312272629930e-02 5.7317258260018494e-03 0.0000000000000000e+00  7.3653724103231941e-02 2.9545044921474879e-03 0.0000000000000000e+00  7.3654351008378041e-02 1.7525338579712797e-04 0.0000000000000000e+00  7.3652574675356838e-02 -2.6044744233541138e-03 0.0000000000000000e+00  7.3649210741823984e-02 -5.3805040740635699e-03 0.0000000000000000e+00  7.7917190302561945e-02 5.7246832326328803e-03 0.0000000000000000e+00  7.7914603965975673e-02 2.9520556616447163e-03 0.0000000000000000e+00  7.7913676189121470e-02 1.7798603034725887e-04 0.0000000000000000e+00  7.7912913557227723e-02 -2.5967201070851561e-03 0.0000000000000000e+00  7.7913281054691391e-02 -5.3679171542841920e-03 0.0000000000000000e+00  8.2175500182979297e-02 5.7253800867663783e-03 0.0000000000000000e+00  8.2174796341820025e-02 2.9540178333999439e-03 0.0000000000000000e+00  8.2175040197620189e-02 1.8085550271216782e-04 0.0000000000000000e+00  8.2174072577051435e-02 -2.5929375410782595e-03 0.0000000000000000e+00  8.2172744432606387e-02 -5.3655344298556423e-03 0.0000000000000000e+00  </DataArray> 
</PointData> 
</Piece>
</UnstructuredGrid>
</VTKFile>