<?xml version="1.0"?>
<VTKFile type="UnstructuredGrid"  version="0.1"  >
<UnstructuredGrid>
<Piece  NumberOfPoints="135" NumberOfCells="208">
<Points>
<DataArray  type="Float64"  NumberOfComponents="3"  format="ascii">-0.05 0 0  -0.025 0 0  0 0 0  0.02500000000000001 0 0  0.05 0 0  -0.05 0.03846153846153846 0  -0.025 0.03846153846153846 0  0 0.03846153846153846 0  0.02500000000000001 0.03846153846153846 0  0.05 0.03846153846153846 0  -0.05 0.07692307692307693 0  -0.025 0.07692307692307693 0  0 0.07692307692307693 0  0.02500000000000001 0.07692307692307693 0  0.05 0.07692307692307693 0  -0.05 0.1153846153846154 0  -0.025 0.1153846153846154 0  0 0.1153846153846154 0  0.02500000000000001 0.1153846153846154 0  0.05 0.1153846153846154 0  -0.05 0.1538461538461539 0  -0.025 0.1538461538461539 0  0 0.1538461538461539 0  0.02500000000000001 0.1538461538461539 0  0.05 0.1538461538461539 0  -0.05 0.1923076923076923 0  -0.025 0.1923076923076923 0  0 0.1923076923076923 0  0.02500000000000001 0.1923076923076923 0  0.05 0.1923076923076923 0  -0.05 0.2307692307692308 0  -0.025 0.2307692307692308 0  0 0.2307692307692308 0  0.02500000000000001 0.2307692307692308 0  0.05 0.2307692307692308 0  -0.05 0.2692307692307692 0  -0.025 0.2692307692307692 0  0 0.2692307692307692 0  0.02500000000000001 0.2692307692307692 0  0.05 0.2692307692307692 0  -0.05 0.3076923076923077 0  -0.025 0.3076923076923077 0  0 0.3076923076923077 0  0.02500000000000001 0.3076923076923077 0  0.05 0.3076923076923077 0  -0.05 0.3461538461538461 0  -0.025 0.3461538461538461 0  0 0.3461538461538461 0  0.02500000000000001 0.3461538461538461 0  0.05 0.3461538461538461 0  -0.05 0.3846153846153846 0  -0.025 0.3846153846153846 0  0 0.3846153846153846 0  0.02500000000000001 0.3846153846153846 0  0.05 0.3846153846153846 0  -0.05 0.4230769230769231 0  -0.025 0.4230769230769231 0  0 0.4230769230769231 0  0.02500000000000001 0.4230769230769231 0  0.05 0.4230769230769231 0  -0.05 0.4615384615384616 0  -0.025 0.4615384615384616 0  0 0.4615384615384616 0  0.02500000000000001 0.4615384615384616 0  0.05 0.4615384615384616 0  -0.05 0.5 0  -0.025 0.5 0  0 0.5 0  0.02500000000000001 0.5 0  0.05 0.5 0  -0.05 0.5384615384615384 0  -0.025 0.5384615384615384 0  0 0.5384615384615384 0  0.02500000000000001 0.5384615384615384 0  0.05 0.5384615384615384 0  -0.05 0.5769230769230769 0  -0.025 0.5769230769230769 0  0 0.5769230769230769 0  0.02500000000000001 0.5769230769230769 0  0.05 0.5769230769230769 0  -0.05 0.6153846153846154 0  -0.025 0.6153846153846154 0  0 0.6153846153846154 0  0.02500000000000001 0.6153846153846154 0  0.05 0.6153846153846154 0  -0.05 0.6538461538461539 0  -0.025 0.6538461538461539 0  0 0.6538461538461539 0  0.02500000000000001 0.6538461538461539 0  0.05 0.6538461538461539 0  -0.05 0.6923076923076923 0  -0.025 0.6923076923076923 0  0 0.6923076923076923 0  0.02500000000000001 0.6923076923076923 0  0.05 0.6923076923076923 0  -0.05 0.7307692307692307 0  -0.025 0.7307692307692307 0  0 0.7307692307692307 0  0.02500000000000001 0.7307692307692307 0  0.05 0.7307692307692307 0  -0.05 0.7692307692307693 0  -0.025 0.7692307692307693 0  0 0.7692307692307693 0  0.02500000000000001 0.7692307692307693 0  0.05 0.7692307692307693 0  -0.05 0.8076923076923077 0  -0.025 0.8076923076923077 0  0 0.8076923076923077 0  0.02500000000000001 0.8076923076923077 0  0.05 0.8076923076923077 0  -0.05 0.8461538461538461 0  -0.025 0.8461538461538461 0  0 0.8461538461538461 0  0.02500000000000001 0.8461538461538461 0  0.05 0.8461538461538461 0  -0.05 0.8846153846153846 0  -0.025 0.8846153846153846 0  0 0.8846153846153846 0  0.02500000000000001 0.8846153846153846 0  0.05 0.8846153846153846 0  -0.05 0.9230769230769231 0  -0.025 0.9230769230769231 0  0 0.9230769230769231 0  0.02500000000000001 0.9230769230769231 0  0.05 0.9230769230769231 0  -0.05 0.9615384615384616 0  -0.025 0.9615384615384616 0  0 0.9615384615384616 0  0.02500000000000001 0.9615384615384616 0  0.05 0.9615384615384616 0  -0.05 1 0  -0.025 1 0  0 1 0  0.02500000000000001 1 0  0.05 1 0  </DataArray>
</Points>
<Cells>
<DataArray  type="UInt32"  Name="connectivity"  format="ascii">0 1 6  0 5 6  1 2 7  1 6 7  2 3 8  2 7 8  3 4 9  3 8 9  5 6 11  5 10 11  6 7 12  6 11 12  7 8 13  7 12 13  8 9 14  8 13 14  10 11 16  10 15 16  11 12 17  11 16 17  12 13 18  12 17 18  13 14 19  13 18 19  15 16 21  15 20 21  16 17 22  16 21 22  17 18 23  17 22 23  18 19 24  18 23 24  20 21 26  20 25 26  21 22 27  21 26 27  22 23 28  22 27 28  23 24 29  23 28 29  25 26 31  25 30 31  26 27 32  26 31 32  27 28 33  27 32 33  28 29 34  28 33 34  30 31 36  30 35 36  31 32 37  31 36 37  32 33 38  32 37 38  33 34 39  33 38 39  35 36 41  35 40 41  36 37 42  36 41 42  37 38 43  37 42 43  38 39 44  38 43 44  40 41 46  40 45 46  41 42 47  41 46 47  42 43 48  42 47 48  43 44 49  43 48 49  45 46 51  45 50 51  46 47 52  46 51 52  47 48 53  47 52 53  48 49 54  48 53 54  50 51 56  50 55 56  51 52 57  51 56 57  52 53 58  52 57 58  53 54 59  53 58 59  55 56 61  55 60 61  56 57 62  56 61 62  57 58 63  57 62 63  58 59 64  58 63 64  60 61 66  60 65 66  61 62 67  61 66 67  62 63 68  62 67 68  63 64 69  63 68 69  65 66 71  65 70 71  66 67 72  66 71 72  67 68 73  67 72 73  68 69 74  68 73 74  70 71 76  70 75 76  71 72 77  71 76 77  72 73 78  72 77 78  73 74 79  73 78 79  75 76 81  75 80 81  76 77 82  76 81 82  77 78 83  77 82 83  78 79 84  78 83 84  80 81 86  80 85 86  81 82 87  81 86 87  82 83 88  82 87 88  83 84 89  83 88 89  85 86 91  85 90 91  86 87 92  86 91 92  87 88 93  87 92 93  88 89 94  88 93 94  90 91 96  90 95 96  91 92 97  91 96 97  92 93 98  92 97 98  93 94 99  93 98 99  95 96 101  95 100 101  96 97 102  96 101 102  97 98 103  97 102 103  98 99 104  98 103 104  100 101 106  100 105 106  101 102 107  101 106 107  102 103 108  102 107 108  103 104 109  103 108 109  105 106 111  105 110 111  106 107 112  106 111 112  107 108 113  107 112 113  108 109 114  108 113 114  110 111 116  110 115 116  111 112 117  111 116 117  112 113 118  112 117 118  113 114 119  113 118 119  115 116 121  115 120 121  116 117 122  116 121 122  117 118 123  117 122 123  118 119 124  118 123 124  120 121 126  120 125 126  121 122 127  121 126 127  122 123 128  122 127 128  123 124 129  123 128 129  125 126 131  125 130 131  126 127 132  126 131 132  127 128 133  127 132 133  128 129 134  128 133 134  </DataArray>
<DataArray  type="UInt32"  Name="offsets"  format="ascii">3 6 9 12 15 18 21 24 27 30 33 36 39 42 45 48 51 54 57 60 63 66 69 72 75 78 81 84 87 90 93 96 99 102 105 108 111 114 117 120 123 126 129 132 135 138 141 144 147 150 153 156 159 162 165 168 171 174 177 180 183 186 189 192 195 198 201 204 207 210 213 216 219 222 225 228 231 234 237 240 243 246 249 252 255 258 261 264 267 270 273 276 279 282 285 288 291 294 297 300 303 306 309 312 315 318 321 324 327 330 333 336 339 342 345 348 351 354 357 360 363 366 369 372 375 378 381 384 387 390 393 396 399 402 405 408 411 414 417 420 423 426 429 432 435 438 441 444 447 450 453 456 459 462 465 468 471 474 477 480 483 486 489 492 495 498 501 504 507 510 513 516 519 522 525 528 531 534 537 540 543 546 549 552 555 558 561 564 567 570 573 576 579 582 585 588 591 594 597 600 603 606 609 612 615 618 621 624 </DataArray>
<DataArray  type="UInt8"  Name="types"  format="ascii">5 5 5 5 5 5 5 5 5 5 5 5 5 5 5 5 5 5 5 5 5 5 5 5 5 5 5 5 5 5 5 5 5 5 5 5 5 5 5 5 5 5 5 5 5 5 5 5 5 5 5 5 5 5 5 5 5 5 5 5 5 5 5 5 5 5 5 5 5 5 5 5 5 5 5 5 5 5 5 5 5 5 5 5 5 5 5 5 5 5 5 5 5 5 5 5 5 5 5 5 5 5 5 5 5 5 5 5 5 5 5 5 5 5 5 5 5 5 5 5 5 5 5 5 5 5 5 5 5 5 5 5 5 5 5 5 5 5 5 5 5 5 5 5 5 5 5 5 5 5 5 5 5 5 5 5 5 5 5 5 5 5 5 5 5 5 5 5 5 5 5 5 5 5 5 5 5 5 5 5 5 5 5 5 5 5 5 5 5 5 5 5 5 5 5 5 5 5 5 5 5 5 5 5 5 5 5 5 </DataArray>
</Cells>
<PointData  Vectors="Displacement"> 
<DataArray  type="Float64"  Name="Displacement"  NumberOfComponents="3" format="ascii">-4.5985750285928394e-16 2.6332608705159984e-18 0.0000000000000000e+00  0.0000000000000000e+00 0.0000000000000000e+00 0.0000000000000000e+00  0.0000000000000000e+00 0.0000000000000000e+00 0.0000000000000000e+00  -5.3966371818348366e-17 5.9470747915984824e-19 0.0000000000000000e+00  1.6189911545504511e-16 -1.7841224374795448e-18 0.0000000000000000e+00  2.1881662708021969e-05 2.8912681352141191e-05 0.0000000000000000e+00  1.4586619688145949e-05 1.3116482959694043e-05 0.0000000000000000e+00  1.2510962031226908e-05 -1.3190866491304238e-06 0.0000000000000000e+00  1.4907268773151874e-05 -1.4995673139131276e-05 0.0000000000000000e+00  2.1870506891369711e-05 -3.0727508358127436e-05 0.0000000000000000e+00  5.6626753398789335e-05 5.5860983360544405e-05 0.0000000000000000e+00  5.0365059687441075e-05 2.6305620912310526e-05 0.0000000000000000e+00  4.8143371217871319e-05 -2.7317189587907764e-06 0.0000000000000000e+00  5.0134822034746925e-05 -3.0743838441906405e-05 0.0000000000000000e+00  5.5907711205609669e-05 -5.9179065427118093e-05 0.0000000000000000e+00  1.1225997014506403e-04 8.3121728447606494e-05 0.0000000000000000e+00  1.0606590027982823e-04 3.9498381520945167e-05 0.0000000000000000e+00  1.0430778604563979e-04 -3.3378488764067858e-06 0.0000000000000000e+00  1.0645088138117467e-04 -4.5938068151355862e-05 0.0000000000000000e+00  1.1277199281289796e-04 -8.9141440806173754e-05 0.0000000000000000e+00  1.9198353390240789e-04 1.0976950619340559e-04 0.0000000000000000e+00  1.8535165257370373e-04 5.1794405523342668e-05 0.0000000000000000e+00  1.8292638288114061e-04 -4.9863030927018886e-06 0.0000000000000000e+00  1.8519072927675726e-04 -6.1396642074719408e-05 0.0000000000000000e+00  1.9143612716512824e-04 -1.1887243923303351e-04 0.0000000000000000e+00  2.9069195664064207e-04 1.3478874121856835e-04 0.0000000000000000e+00  2.8554495114851069e-04 6.3247405678050803e-05 0.0000000000000000e+00  2.8387121235105411e-04 -7.0883571851808540e-06 0.0000000000000000e+00  2.8553027712621297e-04 -7.7079485482511965e-05 0.0000000000000000e+00  2.9098808053075736e-04 -1.4808886638966975e-04 0.0000000000000000e+00  4.1552073357205028e-04 1.5870678620587400e-04 0.0000000000000000e+00  4.0954167680857259e-04 7.3616702434840093e-05 0.0000000000000000e+00  4.0750822685326046e-04 -8.7311404112859544e-06 0.0000000000000000e+00  4.0900810241326004e-04 -9.1223588067347236e-05 0.0000000000000000e+00  4.1438843523322865e-04 -1.7696490130422924e-04 0.0000000000000000e+00  5.5779815337049748e-04 1.7788752635044936e-04 0.0000000000000000e+00  5.5535872730873021e-04 8.0931308324493515e-05 0.0000000000000000e+00  5.5520238258425592e-04 -1.1154834426633928e-05 0.0000000000000000e+00  5.5658287488724709e-04 -1.0322767879078953e-04 0.0000000000000000e+00  5.6012963440717992e-04 -2.0025680167105092e-04 0.0000000000000000e+00  7.2436189095218700e-04 1.8850422833189398e-04 0.0000000000000000e+00  7.2294182518659262e-04 8.3131058566729145e-05 0.0000000000000000e+00  7.2282969748455115e-04 -1.3719839763449474e-05 0.0000000000000000e+00  7.2344105402543995e-04 -1.0975600418693161e-04 0.0000000000000000e+00  7.2461990486082041e-04 -2.1365411687826959e-04 0.0000000000000000e+00  8.9491222744942885e-04 1.8103260113047501e-04 0.0000000000000000e+00  8.9800979034114980e-04 7.8566456175503980e-05 0.0000000000000000e+00  8.9861386003611365e-04 -1.5394337562416189e-05 0.0000000000000000e+00  8.9727528704437449e-04 -1.0850218477142239e-04 0.0000000000000000e+00  8.9445212793172978e-04 -2.1012587321577584e-04 0.0000000000000000e+00  1.0531983992538687e-03 1.5438905274334119e-04 0.0000000000000000e+00  1.0598395921998954e-03 6.4769006886320090e-05 0.0000000000000000e+00  1.0619412370751666e-03 -1.7188951628211960e-05 0.0000000000000000e+00  1.0600699423623271e-03 -9.8734875277995855e-05 0.0000000000000000e+00  1.0540705008001291e-03 -1.8778904655280263e-04 0.0000000000000000e+00  1.1852012870377817e-03 1.1259170696454083e-04 0.0000000000000000e+00  1.1933646130668340e-03 4.3948638589607951e-05 0.0000000000000000e+00  1.1955375175421478e-03 -1.8981290619929340e-05 0.0000000000000000e+00  1.1926141024330731e-03 -8.1691359069253200e-05 0.0000000000000000e+00  1.1838053902378583e-03 -1.4948581803513332e-04 0.0000000000000000e+00  1.2727201249256356e-03 5.9969652711497157e-05 0.0000000000000000e+00  1.2837123789446632e-03 1.8835011780270341e-05 0.0000000000000000e+00  1.2869107675541700e-03 -1.9836290414900940e-05 0.0000000000000000e+00  1.2829981834050321e-03 -5.8697226092209046e-05 0.0000000000000000e+00  1.2719568928331697e-03 -9.9938002033411380e-05 0.0000000000000000e+00  1.3188522384713663e-03 4.4365225278729961e-06 0.0000000000000000e+00  1.3285297274173498e-03 -8.6304776404918593e-06 0.0000000000000000e+00  1.3316753565788149e-03 -2.0482942201902505e-05 0.0000000000000000e+00  1.3282600986697793e-03 -3.2457420180693039e-05 0.0000000000000000e+00  1.3171809264902596e-03 -4.5427476513020412e-05 0.0000000000000000e+00  1.3140512938728606e-03 -5.1849778524276876e-05 0.0000000000000000e+00  1.3252082829261745e-03 -3.6369144700371026e-05 0.0000000000000000e+00  1.3287704591939205e-03 -2.1263134075591459e-05 0.0000000000000000e+00  1.3247514989357743e-03 -5.9581627122122379e-06 0.0000000000000000e+00  1.3131170424526720e-03 1.0379106408496775e-05 0.0000000000000000e+00  1.2700612206847908e-03 -1.0435274763633718e-04 0.0000000000000000e+00  1.2789022200986888e-03 -6.2716286415761971e-05 0.0000000000000000e+00  1.2812811827629452e-03 -2.1504012189651096e-05 0.0000000000000000e+00  1.2773657512100303e-03 1.9999295034226548e-05 0.0000000000000000e+00  1.2669080901925320e-03 6.2897466018836304e-05 0.0000000000000000e+00  1.1838191942685574e-03 -1.5351132871953290e-04 0.0000000000000000e+00  1.1924442640307406e-03 -8.6680637917328028e-05 0.0000000000000000e+00  1.1945021752901388e-03 -2.1133246163516087e-05 0.0000000000000000e+00  1.1903523513960227e-03 4.4364554257944395e-05 0.0000000000000000e+00  1.1801553488374481e-03 1.1141636108649383e-04 0.0000000000000000e+00  1.0597883054216575e-03 -1.9932577159360054e-04 0.0000000000000000e+00  1.0680134002642786e-03 -1.0917112923226762e-04 0.0000000000000000e+00  1.0702783961265032e-03 -2.0617320410413390e-05 0.0000000000000000e+00  1.0664531875225517e-03 6.7744614607713241e-05 0.0000000000000000e+00  1.0567730516502318e-03 1.5821815386740079e-04 0.0000000000000000e+00  9.0300765740019575e-04 -2.4022580517745395e-04 0.0000000000000000e+00  9.0893530095612226e-04 -1.2889585207664505e-04 0.0000000000000000e+00  9.1036082341613500e-04 -1.9630088632150295e-05 0.0000000000000000e+00  9.0739216570886983e-04 8.9984544809713549e-05 0.0000000000000000e+00  8.9894119260260465e-04 2.0235049290026947e-04 0.0000000000000000e+00  7.0781190006933474e-04 -2.7707389300963794e-04 0.0000000000000000e+00  7.1366746515387708e-04 -1.4489111907698169e-04 0.0000000000000000e+00  7.1456167426250787e-04 -1.7831954213639994e-05 0.0000000000000000e+00  7.1118921418983523e-04 1.0929698559023641e-04 0.0000000000000000e+00  7.0361179528793353e-04 2.4232589985852262e-04 0.0000000000000000e+00  4.8667359422691211e-04 -3.0241454573453664e-04 0.0000000000000000e+00  4.8821012908272968e-04 -1.5616327304672652e-04 0.0000000000000000e+00  4.8843163234928546e-04 -1.5540702666650119e-05 0.0000000000000000e+00  4.8642716393354019e-04 1.2489850774941475e-04 0.0000000000000000e+00  4.8181611792347424e-04 2.7172343180181308e-04 0.0000000000000000e+00  2.4394811511996308e-04 -3.1446930503406685e-04 0.0000000000000000e+00  2.4456053635292914e-04 -1.6136892184657965e-04 0.0000000000000000e+00  2.4416164854850554e-04 -1.3885578536151096e-05 0.0000000000000000e+00  2.4263311903248858e-04 1.3358492644552486e-04 0.0000000000000000e+00  2.4026053444849336e-04 2.8754607063848829e-04 0.0000000000000000e+00  2.6100264571386514e-06 -3.1406522078669181e-04 0.0000000000000000e+00  1.5032009773405984e-07 -1.6116772152768451e-04 0.0000000000000000e+00  -1.3970243510550309e-06 -1.1546613167680514e-05 0.0000000000000000e+00  -2.9463064243813750e-06 1.3731780848210733e-04 0.0000000000000000e+00  -3.1713749015415557e-06 2.9088663504718695e-04 0.0000000000000000e+00  -2.3409820872215376e-04 -3.0484764443632062e-04 0.0000000000000000e+00  -2.3795822693946876e-04 -1.5659531541115104e-04 0.0000000000000000e+00  -2.3942504783960780e-04 -9.4735181710774527e-06 0.0000000000000000e+00  -2.3934317747496437e-04 1.3722355550384056e-04 0.0000000000000000e+00  -2.3747803732650208e-04 2.8499191650741278e-04 0.0000000000000000e+00  -4.5964131174421979e-04 -2.9239407333300961e-04 0.0000000000000000e+00  -4.6249359504832628e-04 -1.5126492357496390e-04 0.0000000000000000e+00  -4.6333036070647204e-04 -8.2538059336489483e-06 0.0000000000000000e+00  -4.6325751713240467e-04 1.3471649723031053e-04 0.0000000000000000e+00  -4.6186667711841414e-04 2.7729101209839660e-04 0.0000000000000000e+00  -6.6989418518793354e-04 -2.8137581709673581e-04 0.0000000000000000e+00  -6.7495219744475774e-04 -1.4576186079665138e-04 0.0000000000000000e+00  -6.7701917410217805e-04 -6.5038998880676027e-06 0.0000000000000000e+00  -6.7664018002892823e-04 1.3294738984077008e-04 0.0000000000000000e+00  -6.7399621077490215e-04 2.7244936763153580e-04 0.0000000000000000e+00  -8.8248549305314217e-04 -2.7720097834895579e-04 0.0000000000000000e+00  -8.8424189672443323e-04 -1.4085824691111452e-04 0.0000000000000000e+00  -8.8599456096626094e-04 -3.8379668715606157e-06 0.0000000000000000e+00  -8.8722289086914680e-04 1.3351751607718656e-04 0.0000000000000000e+00  -8.8803774766628028e-04 2.7127609003840998e-04 0.0000000000000000e+00  </DataArray> 
</PointData> 
</Piece>
</UnstructuredGrid>
</VTKFile>