<?xml version="1.0"?>
<VTKFile type="UnstructuredGrid"  version="0.1"  >
<UnstructuredGrid>
<Piece  NumberOfPoints="135" NumberOfCells="208">
<Points>
<DataArray  type="Float64"  NumberOfComponents="3"  format="ascii">-0.05 0 0  -0.025 0 0  0 0 0  0.02500000000000001 0 0  0.05 0 0  -0.05 0.03846153846153846 0  -0.025 0.03846153846153846 0  0 0.03846153846153846 0  0.02500000000000001 0.03846153846153846 0  0.05 0.03846153846153846 0  -0.05 0.07692307692307693 0  -0.025 0.07692307692307693 0  0 0.07692307692307693 0  0.02500000000000001 0.07692307692307693 0  0.05 0.07692307692307693 0  -0.05 0.1153846153846154 0  -0.025 0.1153846153846154 0  0 0.1153846153846154 0  0.02500000000000001 0.1153846153846154 0  0.05 0.1153846153846154 0  -0.05 0.1538461538461539 0  -0.025 0.1538461538461539 0  0 0.1538461538461539 0  0.02500000000000001 0.1538461538461539 0  0.05 0.1538461538461539 0  -0.05 0.1923076923076923 0  -0.025 0.1923076923076923 0  0 0.1923076923076923 0  0.02500000000000001 0.1923076923076923 0  0.05 0.1923076923076923 0  -0.05 0.2307692307692308 0  -0.025 0.2307692307692308 0  0 0.2307692307692308 0  0.02500000000000001 0.2307692307692308 0  0.05 0.2307692307692308 0  -0.05 0.2692307692307692 0  -0.025 0.2692307692307692 0  0 0.2692307692307692 0  0.02500000000000001 0.2692307692307692 0  0.05 0.2692307692307692 0  -0.05 0.3076923076923077 0  -0.025 0.3076923076923077 0  0 0.3076923076923077 0  0.02500000000000001 0.3076923076923077 0  0.05 0.3076923076923077 0  -0.05 0.3461538461538461 0  -0.025 0.3461538461538461 0  0 0.3461538461538461 0  0.02500000000000001 0.3461538461538461 0  0.05 0.3461538461538461 0  -0.05 0.3846153846153846 0  -0.025 0.3846153846153846 0  0 0.3846153846153846 0  0.02500000000000001 0.3846153846153846 0  0.05 0.3846153846153846 0  -0.05 0.4230769230769231 0  -0.025 0.4230769230769231 0  0 0.4230769230769231 0  0.02500000000000001 0.4230769230769231 0  0.05 0.4230769230769231 0  -0.05 0.4615384615384616 0  -0.025 0.4615384615384616 0  0 0.4615384615384616 0  0.02500000000000001 0.4615384615384616 0  0.05 0.4615384615384616 0  -0.05 0.5 0  -0.025 0.5 0  0 0.5 0  0.02500000000000001 0.5 0  0.05 0.5 0  -0.05 0.5384615384615384 0  -0.025 0.5384615384615384 0  0 0.5384615384615384 0  0.02500000000000001 0.5384615384615384 0  0.05 0.5384615384615384 0  -0.05 0.5769230769230769 0  -0.025 0.5769230769230769 0  0 0.5769230769230769 0  0.02500000000000001 0.5769230769230769 0  0.05 0.5769230769230769 0  -0.05 0.6153846153846154 0  -0.025 0.6153846153846154 0  0 0.6153846153846154 0  0.02500000000000001 0.6153846153846154 0  0.05 0.6153846153846154 0  -0.05 0.6538461538461539 0  -0.025 0.6538461538461539 0  0 0.6538461538461539 0  0.02500000000000001 0.6538461538461539 0  0.05 0.6538461538461539 0  -0.05 0.6923076923076923 0  -0.025 0.6923076923076923 0  0 0.6923076923076923 0  0.02500000000000001 0.6923076923076923 0  0.05 0.6923076923076923 0  -0.05 0.7307692307692307 0  -0.025 0.7307692307692307 0  0 0.7307692307692307 0  0.02500000000000001 0.7307692307692307 0  0.05 0.7307692307692307 0  -0.05 0.7692307692307693 0  -0.025 0.7692307692307693 0  0 0.7692307692307693 0  0.02500000000000001 0.7692307692307693 0  0.05 0.7692307692307693 0  -0.05 0.8076923076923077 0  -0.025 0.8076923076923077 0  0 0.8076923076923077 0  0.02500000000000001 0.8076923076923077 0  0.05 0.8076923076923077 0  -0.05 0.8461538461538461 0  -0.025 0.8461538461538461 0  0 0.8461538461538461 0  0.02500000000000001 0.8461538461538461 0  0.05 0.8461538461538461 0  -0.05 0.8846153846153846 0  -0.025 0.8846153846153846 0  0 0.8846153846153846 0  0.02500000000000001 0.8846153846153846 0  0.05 0.8846153846153846 0  -0.05 0.9230769230769231 0  -0.025 0.9230769230769231 0  0 0.9230769230769231 0  0.02500000000000001 0.9230769230769231 0  0.05 0.9230769230769231 0  -0.05 0.9615384615384616 0  -0.025 0.9615384615384616 0  0 0.9615384615384616 0  0.02500000000000001 0.9615384615384616 0  0.05 0.9615384615384616 0  -0.05 1 0  -0.025 1 0  0 1 0  0.02500000000000001 1 0  0.05 1 0  </DataArray>
</Points>
<Cells>
<DataArray  type="UInt32"  Name="connectivity"  format="ascii">0 1 6  0 5 6  1 2 7  1 6 7  2 3 8  2 7 8  3 4 9  3 8 9  5 6 11  5 10 11  6 7 12  6 11 12  7 8 13  7 12 13  8 9 14  8 13 14  10 11 16  10 15 16  11 12 17  11 16 17  12 13 18  12 17 18  13 14 19  13 18 19  15 16 21  15 20 21  16 17 22  16 21 22  17 18 23  17 22 23  18 19 24  18 23 24  20 21 26  20 25 26  21 22 27  21 26 27  22 23 28  22 27 28  23 24 29  23 28 29  25 26 31  25 30 31  26 27 32  26 31 32  27 28 33  27 32 33  28 29 34  28 33 34  30 31 36  30 35 36  31 32 37  31 36 37  32 33 38  32 37 38  33 34 39  33 38 39  35 36 41  35 40 41  36 37 42  36 41 42  37 38 43  37 42 43  38 39 44  38 43 44  40 41 46  40 45 46  41 42 47  41 46 47  42 43 48  42 47 48  43 44 49  43 48 49  45 46 51  45 50 51  46 47 52  46 51 52  47 48 53  47 52 53  48 49 54  48 53 54  50 51 56  50 55 56  51 52 57  51 56 57  52 53 58  52 57 58  53 54 59  53 58 59  55 56 61  55 60 61  56 57 62  56 61 62  57 58 63  57 62 63  58 59 64  58 63 64  60 61 66  60 65 66  61 62 67  61 66 67  62 63 68  62 67 68  63 64 69  63 68 69  65 66 71  65 70 71  66 67 72  66 71 72  67 68 73  67 72 73  68 69 74  68 73 74  70 71 76  70 75 76  71 72 77  71 76 77  72 73 78  72 77 78  73 74 79  73 78 79  75 76 81  75 80 81  76 77 82  76 81 82  77 78 83  77 82 83  78 79 84  78 83 84  80 81 86  80 85 86  81 82 87  81 86 87  82 83 88  82 87 88  83 84 89  83 88 89  85 86 91  85 90 91  86 87 92  86 91 92  87 88 93  87 92 93  88 89 94  88 93 94  90 91 96  90 95 96  91 92 97  91 96 97  92 93 98  92 97 98  93 94 99  93 98 99  95 96 101  95 100 101  96 97 102  96 101 102  97 98 103  97 102 103  98 99 104  98 103 104  100 101 106  100 105 106  101 102 107  101 106 107  102 103 108  102 107 108  103 104 109  103 108 109  105 106 111  105 110 111  106 107 112  106 111 112  107 108 113  107 112 113  108 109 114  108 113 114  110 111 116  110 115 116  111 112 117  111 116 117  112 113 118  112 117 118  113 114 119  113 118 119  115 116 121  115 120 121  116 117 122  116 121 122  117 118 123  117 122 123  118 119 124  118 123 124  120 121 126  120 125 126  121 122 127  121 126 127  122 123 128  122 127 128  123 124 129  123 128 129  125 126 131  125 130 131  126 127 132  126 131 132  127 128 133  127 132 133  128 129 134  128 133 134  </DataArray>
<DataArray  type="UInt32"  Name="offsets"  format="ascii">3 6 9 12 15 18 21 24 27 30 33 36 39 42 45 48 51 54 57 60 63 66 69 72 75 78 81 84 87 90 93 96 99 102 105 108 111 114 117 120 123 126 129 132 135 138 141 144 147 150 153 156 159 162 165 168 171 174 177 180 183 186 189 192 195 198 201 204 207 210 213 216 219 222 225 228 231 234 237 240 243 246 249 252 255 258 261 264 267 270 273 276 279 282 285 288 291 294 297 300 303 306 309 312 315 318 321 324 327 330 333 336 339 342 345 348 351 354 357 360 363 366 369 372 375 378 381 384 387 390 393 396 399 402 405 408 411 414 417 420 423 426 429 432 435 438 441 444 447 450 453 456 459 462 465 468 471 474 477 480 483 486 489 492 495 498 501 504 507 510 513 516 519 522 525 528 531 534 537 540 543 546 549 552 555 558 561 564 567 570 573 576 579 582 585 588 591 594 597 600 603 606 609 612 615 618 621 624 </DataArray>
<DataArray  type="UInt8"  Name="types"  format="ascii">5 5 5 5 5 5 5 5 5 5 5 5 5 5 5 5 5 5 5 5 5 5 5 5 5 5 5 5 5 5 5 5 5 5 5 5 5 5 5 5 5 5 5 5 5 5 5 5 5 5 5 5 5 5 5 5 5 5 5 5 5 5 5 5 5 5 5 5 5 5 5 5 5 5 5 5 5 5 5 5 5 5 5 5 5 5 5 5 5 5 5 5 5 5 5 5 5 5 5 5 5 5 5 5 5 5 5 5 5 5 5 5 5 5 5 5 5 5 5 5 5 5 5 5 5 5 5 5 5 5 5 5 5 5 5 5 5 5 5 5 5 5 5 5 5 5 5 5 5 5 5 5 5 5 5 5 5 5 5 5 5 5 5 5 5 5 5 5 5 5 5 5 5 5 5 5 5 5 5 5 5 5 5 5 5 5 5 5 5 5 5 5 5 5 5 5 5 5 5 5 5 5 5 5 5 5 5 5 </DataArray>
</Cells>
<PointData  Vectors="Displacement"> 
<DataArray  type="Float64"  Name="Displacement"  NumberOfComponents="3" format="ascii">-4.7442526448102682e-16 8.0508449401303737e-18 0.0000000000000000e+00  0.0000000000000000e+00 0.0000000000000000e+00 0.0000000000000000e+00  0.0000000000000000e+00 0.0000000000000000e+00 0.0000000000000000e+00  -5.9610588526562829e-17 1.6611164285338666e-18 0.0000000000000000e+00  1.7883176557968851e-16 -4.9833492856015998e-18 0.0000000000000000e+00  5.9293484362470258e-04 9.2304485290679080e-04 0.0000000000000000e+00  3.9616386508121423e-04 4.4578090381551663e-04 0.0000000000000000e+00  3.2331636217613303e-04 3.1202152912516076e-06 0.0000000000000000e+00  3.8513741737220252e-04 -4.3651958307580673e-04 0.0000000000000000e+00  5.8446253514315137e-04 -9.2676314490717116e-04 0.0000000000000000e+00  1.6938392009600287e-03 1.8183163649760044e-03 0.0000000000000000e+00  1.5094104877607908e-03 8.9776863587921741e-04 0.0000000000000000e+00  1.4483841224528123e-03 4.5568715174428181e-06 0.0000000000000000e+00  1.5101037826052831e-03 -8.9054786552272749e-04 0.0000000000000000e+00  1.6932995230901908e-03 -1.8140798744459203e-03 0.0000000000000000e+00  3.4798274139414822e-03 2.6677931241800099e-03 0.0000000000000000e+00  3.3083291842363784e-03 1.3205976550412853e-03 0.0000000000000000e+00  3.2514212222294983e-03 4.8975859128790026e-06 0.0000000000000000e+00  3.3082901175247692e-03 -1.3119754960036307e-03 0.0000000000000000e+00  3.4801491792768847e-03 -2.6593971022994775e-03 0.0000000000000000e+00  5.9007434234161485e-03 3.4546302761423965e-03 0.0000000000000000e+00  5.7418217293953282e-03 1.7140127217635857e-03 0.0000000000000000e+00  5.6893021778698588e-03 6.4569838754312586e-06 0.0000000000000000e+00  5.7420706711585395e-03 -1.7019465081518895e-03 0.0000000000000000e+00  5.9001590785762812e-03 -3.4432234032037564e-03 0.0000000000000000e+00  8.8991026328492061e-03 4.1767085170061518e-03 0.0000000000000000e+00  8.7543349582607857e-03 2.0757383746200925e-03 0.0000000000000000e+00  8.7060860073403905e-03 7.6185510100400606e-06 0.0000000000000000e+00  8.7547252996585945e-03 -2.0609579180736613e-03 0.0000000000000000e+00  8.9001934879924631e-03 -4.1614792209881237e-03 0.0000000000000000e+00  1.2428173432273577e-02 4.8342945141870916e-03 0.0000000000000000e+00  1.2295066865562421e-02 2.4060767954378914e-03 0.0000000000000000e+00  1.2250678488375889e-02 8.8317489253279364e-06 0.0000000000000000e+00  1.2294582229545409e-02 -2.3886531922967134e-03 0.0000000000000000e+00  1.2426688964542293e-02 -4.8163924242863266e-03 0.0000000000000000e+00  1.6430575059126443e-02 5.4312642776492984e-03 0.0000000000000000e+00  1.6310470732697764e-02 2.7069970884457647e-03 0.0000000000000000e+00  1.6269937135337885e-02 1.0733086902638418e-05 0.0000000000000000e+00  1.6309942999430373e-02 -2.6862782674743984e-03 0.0000000000000000e+00  1.6430178091447593e-02 -5.4111445010898360e-03 0.0000000000000000e+00  2.0865066783224785e-02 5.9740091487479139e-03 0.0000000000000000e+00  2.0754734230591598e-02 2.9804398687227887e-03 0.0000000000000000e+00  2.0718400252595793e-02 1.1574638575851282e-05 0.0000000000000000e+00  2.0755717533218976e-02 -2.9577968461676628e-03 0.0000000000000000e+00  2.0865840125549963e-02 -5.9516589064449116e-03 0.0000000000000000e+00  2.5691041312033175e-02 6.4701437933585891e-03 0.0000000000000000e+00  2.5590117392592447e-02 3.2303372358072902e-03 0.0000000000000000e+00  2.5556504230928156e-02 1.2430154675344105e-05 0.0000000000000000e+00  2.5590234015373640e-02 -3.2057785002379238e-03 0.0000000000000000e+00  2.5690584819908067e-02 -6.4450068444305876e-03 0.0000000000000000e+00  3.0875522128253504e-02 6.9249635369728604e-03 0.0000000000000000e+00  3.0782822039760158e-02 3.4598296942864783e-03 0.0000000000000000e+00  3.0751918558416618e-02 1.3504322923190958e-05 0.0000000000000000e+00  3.0783158479290043e-02 -3.4332791233126431e-03 0.0000000000000000e+00  3.0876153543461234e-02 -6.8988184700143739e-03 0.0000000000000000e+00  3.6390876398319401e-02 7.3440543507120107e-03 0.0000000000000000e+00  3.6304630829359745e-02 3.6706387617500076e-03 0.0000000000000000e+00  3.6276629862659310e-02 1.3862756212998451e-05 0.0000000000000000e+00  3.6305849524950605e-02 -3.6431774297448574e-03 0.0000000000000000e+00  3.6391362995687820e-02 -7.3164065347176288e-03 0.0000000000000000e+00  4.2210110048508380e-02 7.7320661472219951e-03 0.0000000000000000e+00  4.2130808590768884e-02 3.8659798880203984e-03 0.0000000000000000e+00  4.2104271434569192e-02 1.4283746689997597e-05 0.0000000000000000e+00  4.2131078321844359e-02 -3.8376414846796590e-03 0.0000000000000000e+00  4.2210790586787963e-02 -7.7030058155231314e-03 0.0000000000000000e+00  4.8313980062715062e-02 8.0935364298801975e-03 0.0000000000000000e+00  4.8238382445229190e-02 4.0481006622361685e-03 0.0000000000000000e+00  4.8213868774204943e-02 1.4759288325340551e-05 0.0000000000000000e+00  4.8239135391787175e-02 -4.0187251931405139e-03 0.0000000000000000e+00  4.8313696261972940e-02 -8.0640854601100806e-03 0.0000000000000000e+00  5.4682308958517244e-02 8.4342089344111859e-03 0.0000000000000000e+00  5.4612345157979518e-02 4.2188034135490181e-03 0.0000000000000000e+00  5.4589137355639895e-02 1.5178241711164368e-05 0.0000000000000000e+00  5.4612527452541776e-02 -4.1887728535411122e-03 0.0000000000000000e+00  5.4682560203788734e-02 -8.4036610904176870e-03 0.0000000000000000e+00  6.1305974546971696e-02 8.7537211271626458e-03 0.0000000000000000e+00  6.1239592431335962e-02 4.3789671501120210e-03 0.0000000000000000e+00  6.1218005982199418e-02 1.5442336068118801e-05 0.0000000000000000e+00  6.1240350181495817e-02 -4.3486182392905495e-03 0.0000000000000000e+00  6.1306562928368509e-02 -8.7239081756786060e-03 0.0000000000000000e+00  6.8166059475365637e-02 9.0535296257758281e-03 0.0000000000000000e+00  6.8104346348112965e-02 4.5285118310169226e-03 0.0000000000000000e+00  6.8084804255012815e-02 1.5338688487562451e-05 0.0000000000000000e+00  6.8105771767504764e-02 -4.4981624310643708e-03 0.0000000000000000e+00  6.8167039790053299e-02 -9.0227411504283546e-03 0.0000000000000000e+00  7.5251813434483616e-02 9.3328385360061626e-03 0.0000000000000000e+00  7.5195303435148034e-02 4.6671722761248563e-03 0.0000000000000000e+00  7.5176988442671691e-02 1.5320221092601789e-05 0.0000000000000000e+00  7.5195954822060138e-02 -4.6363404614327003e-03 0.0000000000000000e+00  7.5252650950111272e-02 -9.3007443326857675e-03 0.0000000000000000e+00  8.2547418454531410e-02 9.5870060212127385e-03 0.0000000000000000e+00  8.2495471102442708e-02 4.7935998220644408e-03 0.0000000000000000e+00  8.2478893298155193e-02 1.5888275229740919e-05 0.0000000000000000e+00  8.2495649223484610e-02 -4.7615728941747502e-03 0.0000000000000000e+00  8.2546469465201430e-02 -9.5540453729750698e-03 0.0000000000000000e+00  9.0029894682583878e-02 9.8139701631534369e-03 0.0000000000000000e+00  8.9985624134393136e-02 4.9059421030795839e-03 0.0000000000000000e+00  8.9971222542937282e-02 1.6475895528368987e-05 0.0000000000000000e+00  8.9986049037230079e-02 -4.8728080521609997e-03 0.0000000000000000e+00  9.0030848246812442e-02 -9.7801131922565076e-03 0.0000000000000000e+00  9.7682452907872697e-02 1.0006739849137684e-02 0.0000000000000000e+00  9.7644466584060521e-02 5.0014988438713652e-03 0.0000000000000000e+00  9.7632487944206883e-02 1.6598506242667553e-05 0.0000000000000000e+00  9.7645183257298457e-02 -4.9677197111728435e-03 0.0000000000000000e+00  9.7682680982698389e-02 -9.9715072878793359e-03 0.0000000000000000e+00  1.0546597639124487e-01 1.0159755292723246e-02 0.0000000000000000e+00  1.0543737141971465e-01 5.0784182929799748e-03 0.0000000000000000e+00  1.0542796956423460e-01 1.7498659914386751e-05 0.0000000000000000e+00  1.0543741443468375e-01 -5.0434561913274122e-03 0.0000000000000000e+00  1.0546634393190560e-01 -1.0123824536328898e-02 0.0000000000000000e+00  1.1335504038933905e-01 1.0274592517221509e-02 0.0000000000000000e+00  1.1333360221570149e-01 5.1361360652807152e-03 0.0000000000000000e+00  1.1332694686570939e-01 1.8425913227994427e-05 0.0000000000000000e+00  1.1333443900653348e-01 -5.0995108542760169e-03 0.0000000000000000e+00  1.1335585643596387e-01 -1.0237526317389067e-02 0.0000000000000000e+00  1.2131279587156245e-01 1.0349750122078179e-02 0.0000000000000000e+00  1.2129892768350749e-01 5.1750163845941371e-03 0.0000000000000000e+00  1.2129493030826274e-01 1.8432532642010324e-05 0.0000000000000000e+00  1.2130032707570251e-01 -5.1374349773862784e-03 0.0000000000000000e+00  1.2131408644784186e-01 -1.0309828715514436e-02 0.0000000000000000e+00  1.2930646663098871e-01 1.0390352091112408e-02 0.0000000000000000e+00  1.2929877822852306e-01 5.1976865204458747e-03 0.0000000000000000e+00  1.2929578278125683e-01 1.9320535524764604e-05 0.0000000000000000e+00  1.2929836546431930e-01 -5.1585074656580734e-03 0.0000000000000000e+00  1.2930561576997296e-01 -1.0348638503024499e-02 0.0000000000000000e+00  1.3731152512420042e-01 1.0406239289333404e-02 0.0000000000000000e+00  1.3730590372220375e-01 5.2093656335284516e-03 0.0000000000000000e+00  1.3730413044660073e-01 2.0540787445043720e-05 0.0000000000000000e+00  1.3730551303319127e-01 -5.1677637654558009e-03 0.0000000000000000e+00  1.3730965317933280e-01 -1.0361229651564000e-02 0.0000000000000000e+00  1.4530709701244585e-01 1.0410731845542025e-02 0.0000000000000000e+00  1.4530441564886029e-01 5.2150448201336193e-03 0.0000000000000000e+00  1.4530219382299381e-01 2.2423022005251281e-05 0.0000000000000000e+00  1.4530197317958093e-01 -5.1688045928859234e-03 0.0000000000000000e+00  1.4530242472130492e-01 -1.0361450213456849e-02 0.0000000000000000e+00  </DataArray> 
</PointData> 
</Piece>
</UnstructuredGrid>
</VTKFile>