<?xml version="1.0"?>
<VTKFile type="UnstructuredGrid"  version="0.1"  >
<UnstructuredGrid>
<Piece  NumberOfPoints="135" NumberOfCells="208">
<Points>
<DataArray  type="Float64"  NumberOfComponents="3"  format="ascii">-0.05 0 0  -0.025 0 0  0 0 0  0.02500000000000001 0 0  0.05 0 0  -0.05 0.03846153846153846 0  -0.025 0.03846153846153846 0  0 0.03846153846153846 0  0.02500000000000001 0.03846153846153846 0  0.05 0.03846153846153846 0  -0.05 0.07692307692307693 0  -0.025 0.07692307692307693 0  0 0.07692307692307693 0  0.02500000000000001 0.07692307692307693 0  0.05 0.07692307692307693 0  -0.05 0.1153846153846154 0  -0.025 0.1153846153846154 0  0 0.1153846153846154 0  0.02500000000000001 0.1153846153846154 0  0.05 0.1153846153846154 0  -0.05 0.1538461538461539 0  -0.025 0.1538461538461539 0  0 0.1538461538461539 0  0.02500000000000001 0.1538461538461539 0  0.05 0.1538461538461539 0  -0.05 0.1923076923076923 0  -0.025 0.1923076923076923 0  0 0.1923076923076923 0  0.02500000000000001 0.1923076923076923 0  0.05 0.1923076923076923 0  -0.05 0.2307692307692308 0  -0.025 0.2307692307692308 0  0 0.2307692307692308 0  0.02500000000000001 0.2307692307692308 0  0.05 0.2307692307692308 0  -0.05 0.2692307692307692 0  -0.025 0.2692307692307692 0  0 0.2692307692307692 0  0.02500000000000001 0.2692307692307692 0  0.05 0.2692307692307692 0  -0.05 0.3076923076923077 0  -0.025 0.3076923076923077 0  0 0.3076923076923077 0  0.02500000000000001 0.3076923076923077 0  0.05 0.3076923076923077 0  -0.05 0.3461538461538461 0  -0.025 0.3461538461538461 0  0 0.3461538461538461 0  0.02500000000000001 0.3461538461538461 0  0.05 0.3461538461538461 0  -0.05 0.3846153846153846 0  -0.025 0.3846153846153846 0  0 0.3846153846153846 0  0.02500000000000001 0.3846153846153846 0  0.05 0.3846153846153846 0  -0.05 0.4230769230769231 0  -0.025 0.4230769230769231 0  0 0.4230769230769231 0  0.02500000000000001 0.4230769230769231 0  0.05 0.4230769230769231 0  -0.05 0.4615384615384616 0  -0.025 0.4615384615384616 0  0 0.4615384615384616 0  0.02500000000000001 0.4615384615384616 0  0.05 0.4615384615384616 0  -0.05 0.5 0  -0.025 0.5 0  0 0.5 0  0.02500000000000001 0.5 0  0.05 0.5 0  -0.05 0.5384615384615384 0  -0.025 0.5384615384615384 0  0 0.5384615384615384 0  0.02500000000000001 0.5384615384615384 0  0.05 0.5384615384615384 0  -0.05 0.5769230769230769 0  -0.025 0.5769230769230769 0  0 0.5769230769230769 0  0.02500000000000001 0.5769230769230769 0  0.05 0.5769230769230769 0  -0.05 0.6153846153846154 0  -0.025 0.6153846153846154 0  0 0.6153846153846154 0  0.02500000000000001 0.6153846153846154 0  0.05 0.6153846153846154 0  -0.05 0.6538461538461539 0  -0.025 0.6538461538461539 0  0 0.6538461538461539 0  0.02500000000000001 0.6538461538461539 0  0.05 0.6538461538461539 0  -0.05 0.6923076923076923 0  -0.025 0.6923076923076923 0  0 0.6923076923076923 0  0.02500000000000001 0.6923076923076923 0  0.05 0.6923076923076923 0  -0.05 0.7307692307692307 0  -0.025 0.7307692307692307 0  0 0.7307692307692307 0  0.02500000000000001 0.7307692307692307 0  0.05 0.7307692307692307 0  -0.05 0.7692307692307693 0  -0.025 0.7692307692307693 0  0 0.7692307692307693 0  0.02500000000000001 0.7692307692307693 0  0.05 0.7692307692307693 0  -0.05 0.8076923076923077 0  -0.025 0.8076923076923077 0  0 0.8076923076923077 0  0.02500000000000001 0.8076923076923077 0  0.05 0.8076923076923077 0  -0.05 0.8461538461538461 0  -0.025 0.8461538461538461 0  0 0.8461538461538461 0  0.02500000000000001 0.8461538461538461 0  0.05 0.8461538461538461 0  -0.05 0.8846153846153846 0  -0.025 0.8846153846153846 0  0 0.8846153846153846 0  0.02500000000000001 0.8846153846153846 0  0.05 0.8846153846153846 0  -0.05 0.9230769230769231 0  -0.025 0.9230769230769231 0  0 0.9230769230769231 0  0.02500000000000001 0.9230769230769231 0  0.05 0.9230769230769231 0  -0.05 0.9615384615384616 0  -0.025 0.9615384615384616 0  0 0.9615384615384616 0  0.02500000000000001 0.9615384615384616 0  0.05 0.9615384615384616 0  -0.05 1 0  -0.025 1 0  0 1 0  0.02500000000000001 1 0  0.05 1 0  </DataArray>
</Points>
<Cells>
<DataArray  type="UInt32"  Name="connectivity"  format="ascii">0 1 6  0 5 6  1 2 7  1 6 7  2 3 8  2 7 8  3 4 9  3 8 9  5 6 11  5 10 11  6 7 12  6 11 12  7 8 13  7 12 13  8 9 14  8 13 14  10 11 16  10 15 16  11 12 17  11 16 17  12 13 18  12 17 18  13 14 19  13 18 19  15 16 21  15 20 21  16 17 22  16 21 22  17 18 23  17 22 23  18 19 24  18 23 24  20 21 26  20 25 26  21 22 27  21 26 27  22 23 28  22 27 28  23 24 29  23 28 29  25 26 31  25 30 31  26 27 32  26 31 32  27 28 33  27 32 33  28 29 34  28 33 34  30 31 36  30 35 36  31 32 37  31 36 37  32 33 38  32 37 38  33 34 39  33 38 39  35 36 41  35 40 41  36 37 42  36 41 42  37 38 43  37 42 43  38 39 44  38 43 44  40 41 46  40 45 46  41 42 47  41 46 47  42 43 48  42 47 48  43 44 49  43 48 49  45 46 51  45 50 51  46 47 52  46 51 52  47 48 53  47 52 53  48 49 54  48 53 54  50 51 56  50 55 56  51 52 57  51 56 57  52 53 58  52 57 58  53 54 59  53 58 59  55 56 61  55 60 61  56 57 62  56 61 62  57 58 63  57 62 63  58 59 64  58 63 64  60 61 66  60 65 66  61 62 67  61 66 67  62 63 68  62 67 68  63 64 69  63 68 69  65 66 71  65 70 71  66 67 72  66 71 72  67 68 73  67 72 73  68 69 74  68 73 74  70 71 76  70 75 76  71 72 77  71 76 77  72 73 78  72 77 78  73 74 79  73 78 79  75 76 81  75 80 81  76 77 82  76 81 82  77 78 83  77 82 83  78 79 84  78 83 84  80 81 86  80 85 86  81 82 87  81 86 87  82 83 88  82 87 88  83 84 89  83 88 89  85 86 91  85 90 91  86 87 92  86 91 92  87 88 93  87 92 93  88 89 94  88 93 94  90 91 96  90 95 96  91 92 97  91 96 97  92 93 98  92 97 98  93 94 99  93 98 99  95 96 101  95 100 101  96 97 102  96 101 102  97 98 103  97 102 103  98 99 104  98 103 104  100 101 106  100 105 106  101 102 107  101 106 107  102 103 108  102 107 108  103 104 109  103 108 109  105 106 111  105 110 111  106 107 112  106 111 112  107 108 113  107 112 113  108 109 114  108 113 114  110 111 116  110 115 116  111 112 117  111 116 117  112 113 118  112 117 118  113 114 119  113 118 119  115 116 121  115 120 121  116 117 122  116 121 122  117 118 123  117 122 123  118 119 124  118 123 124  120 121 126  120 125 126  121 122 127  121 126 127  122 123 128  122 127 128  123 124 129  123 128 129  125 126 131  125 130 131  126 127 132  126 131 132  127 128 133  127 132 133  128 129 134  128 133 134  </DataArray>
<DataArray  type="UInt32"  Name="offsets"  format="ascii">3 6 9 12 15 18 21 24 27 30 33 36 39 42 45 48 51 54 57 60 63 66 69 72 75 78 81 84 87 90 93 96 99 102 105 108 111 114 117 120 123 126 129 132 135 138 141 144 147 150 153 156 159 162 165 168 171 174 177 180 183 186 189 192 195 198 201 204 207 210 213 216 219 222 225 228 231 234 237 240 243 246 249 252 255 258 261 264 267 270 273 276 279 282 285 288 291 294 297 300 303 306 309 312 315 318 321 324 327 330 333 336 339 342 345 348 351 354 357 360 363 366 369 372 375 378 381 384 387 390 393 396 399 402 405 408 411 414 417 420 423 426 429 432 435 438 441 444 447 450 453 456 459 462 465 468 471 474 477 480 483 486 489 492 495 498 501 504 507 510 513 516 519 522 525 528 531 534 537 540 543 546 549 552 555 558 561 564 567 570 573 576 579 582 585 588 591 594 597 600 603 606 609 612 615 618 621 624 </DataArray>
<DataArray  type="UInt8"  Name="types"  format="ascii">5 5 5 5 5 5 5 5 5 5 5 5 5 5 5 5 5 5 5 5 5 5 5 5 5 5 5 5 5 5 5 5 5 5 5 5 5 5 5 5 5 5 5 5 5 5 5 5 5 5 5 5 5 5 5 5 5 5 5 5 5 5 5 5 5 5 5 5 5 5 5 5 5 5 5 5 5 5 5 5 5 5 5 5 5 5 5 5 5 5 5 5 5 5 5 5 5 5 5 5 5 5 5 5 5 5 5 5 5 5 5 5 5 5 5 5 5 5 5 5 5 5 5 5 5 5 5 5 5 5 5 5 5 5 5 5 5 5 5 5 5 5 5 5 5 5 5 5 5 5 5 5 5 5 5 5 5 5 5 5 5 5 5 5 5 5 5 5 5 5 5 5 5 5 5 5 5 5 5 5 5 5 5 5 5 5 5 5 5 5 5 5 5 5 5 5 5 5 5 5 5 5 5 5 5 5 5 5 </DataArray>
</Cells>
<PointData  Vectors="Displacement"> 
<DataArray  type="Float64"  Name="Displacement"  NumberOfComponents="3" format="ascii">-4.4622494446138419e-16 5.0199681773368009e-18 0.0000000000000000e+00  0.0000000000000000e+00 0.0000000000000000e+00 0.0000000000000000e+00  0.0000000000000000e+00 0.0000000000000000e+00 0.0000000000000000e+00  -5.4311631991083030e-17 7.5374488025711865e-19 0.0000000000000000e+00  1.6293489597324910e-16 -2.2612346407713562e-18 0.0000000000000000e+00  2.8180618627001629e-04 3.9028001894970098e-04 0.0000000000000000e+00  2.0213189024597910e-04 1.8608902437225054e-04 0.0000000000000000e+00  1.7130818036535230e-04 1.0339996575377219e-05 0.0000000000000000e+00  1.9290043064161403e-04 -1.6189973944086156e-04 0.0000000000000000e+00  2.6851798214526336e-04 -3.6815255514384486e-04 0.0000000000000000e+00  7.4606273607758563e-04 7.3411948937074226e-04 0.0000000000000000e+00  6.7583211637119276e-04 3.6747482527531983e-04 0.0000000000000000e+00  6.4981559351919211e-04 2.1690123143177625e-05 0.0000000000000000e+00  6.6949013098843615e-04 -3.2290633232272248e-04 0.0000000000000000e+00  7.3349063253390920e-04 -6.8780246227920661e-04 0.0000000000000000e+00  1.4466724500518042e-03 1.0415367128752786e-03 0.0000000000000000e+00  1.3830851483380040e-03 5.2926620377012374e-04 0.0000000000000000e+00  1.3587055551859948e-03 3.3185527312306120e-05 0.0000000000000000e+00  1.3753222032225438e-03 -4.6249444050441119e-04 0.0000000000000000e+00  1.4321927020594179e-03 -9.7404079781049922e-04 0.0000000000000000e+00  2.3525702181566637e-03 1.3184494579159371e-03 0.0000000000000000e+00  2.2942236710148745e-03 6.7625614475009459e-04 0.0000000000000000e+00  2.2720815275331934e-03 4.4105487546931699e-05 0.0000000000000000e+00  2.2875921286849860e-03 -5.8812454796452389e-04 0.0000000000000000e+00  2.3391622449323766e-03 -1.2316126879048279e-03 0.0000000000000000e+00  3.4456039169895305e-03 1.5762214318034405e-03 0.0000000000000000e+00  3.3918817138302070e-03 8.1117375311296977e-04 0.0000000000000000e+00  3.3718867911817860e-03 5.4136779068588448e-05 0.0000000000000000e+00  3.3859836244022959e-03 -7.0298614790810965e-04 0.0000000000000000e+00  3.4333630996223018e-03 -1.4673571150663476e-03 0.0000000000000000e+00  4.7243390180277366e-03 1.8221192385754234e-03 0.0000000000000000e+00  4.6710967641120579e-03 9.3980490257572957e-04 0.0000000000000000e+00  4.6512143201574516e-03 6.4545317240232523e-05 0.0000000000000000e+00  4.6636409370496915e-03 -8.1044631959839152e-04 0.0000000000000000e+00  4.7092055410582799e-03 -1.6923609531173977e-03 0.0000000000000000e+00  6.1765834694716111e-03 2.0586755079722158e-03 0.0000000000000000e+00  6.1276034377443795e-03 1.0624795660701607e-03 0.0000000000000000e+00  6.1093546661009825e-03 7.4882073799448627e-05 0.0000000000000000e+00  6.1213852220496062e-03 -9.1210217919534783e-04 0.0000000000000000e+00  6.1642414553471706e-03 -1.9079244958413622e-03 0.0000000000000000e+00  7.8039765289066969e-03 2.2806084797967231e-03 0.0000000000000000e+00  7.7579045222584356e-03 1.1771423385365889e-03 0.0000000000000000e+00  7.7407199020089997e-03 8.4324347359067035e-05 0.0000000000000000e+00  7.7518282341742205e-03 -1.0069589214709205e-03 0.0000000000000000e+00  7.7916695623461863e-03 -2.1085170966003985e-03 0.0000000000000000e+00  9.5916570662509092e-03 2.4819756481040461e-03 0.0000000000000000e+00  9.5507630266811368e-03 1.2818817887882603e-03 0.0000000000000000e+00  9.5342097892379025e-03 9.4485996780817921e-05 0.0000000000000000e+00  9.5428343830138655e-03 -1.0918373091731771e-03 0.0000000000000000e+00  9.5775246311948156e-03 -2.2906341083402514e-03 0.0000000000000000e+00  1.1520368009077886e-02 2.6559720702614754e-03 0.0000000000000000e+00  1.1485920407799329e-02 1.3730058631135737e-03 0.0000000000000000e+00  1.1472211013667209e-02 1.0489665741364013e-04 0.0000000000000000e+00  1.1478907886032556e-02 -1.1631984632365306e-03 0.0000000000000000e+00  1.1507569586892794e-02 -2.4461727996299824e-03 0.0000000000000000e+00  1.3566764396075523e-02 2.7988584917694676e-03 0.0000000000000000e+00  1.3537800297629686e-02 1.4494685593081911e-03 0.0000000000000000e+00  1.3525732761291065e-02 1.1452342727510777e-04 0.0000000000000000e+00  1.3531296306700587e-02 -1.2206347395936517e-03 0.0000000000000000e+00  1.3554315181210736e-02 -2.5706940725408719e-03 0.0000000000000000e+00  1.5700191623129835e-02 2.9130173878042852e-03 0.0000000000000000e+00  1.5677467362287659e-02 1.5120370551768617e-03 0.0000000000000000e+00  1.5667459691001348e-02 1.2414507774470486e-04 0.0000000000000000e+00  1.5670885938548332e-02 -1.2644017698127858e-03 0.0000000000000000e+00  1.5687617019610831e-02 -2.6650196761159538e-03 0.0000000000000000e+00  1.7903482427447725e-02 3.0023297746837123e-03 0.0000000000000000e+00  1.7884698229171506e-02 1.5623347042146630e-03 0.0000000000000000e+00  1.7876361756622952e-02 1.3365963296271566e-04 0.0000000000000000e+00  1.7878218447411214e-02 -1.2949526838809532e-03 0.0000000000000000e+00  1.7890705741422087e-02 -2.7359960253656146e-03 0.0000000000000000e+00  2.0156721385717724e-02 3.0691585653471005e-03 0.0000000000000000e+00  2.0144643442730439e-02 1.5988466033817811e-03 0.0000000000000000e+00  2.0138868651663699e-02 1.4205919639422094e-04 0.0000000000000000e+00  2.0139335766069195e-02 -1.3151763919678117e-03 0.0000000000000000e+00  2.0146647276662120e-02 -2.7849851758083421e-03 0.0000000000000000e+00  2.2452135142291319e-02 3.1085588483731291e-03 0.0000000000000000e+00  2.2445042889077411e-02 1.6217905576788028e-03 0.0000000000000000e+00  2.2440410982231519e-02 1.4941479690914087e-04 0.0000000000000000e+00  2.2438661926235542e-02 -1.3226901836656225e-03 0.0000000000000000e+00  2.2440587673177709e-02 -2.8090943933816656e-03 0.0000000000000000e+00  2.4756999497977907e-02 3.1165008535614254e-03 0.0000000000000000e+00  2.4755992703057571e-02 1.6307457297367769e-03 0.0000000000000000e+00  2.4753131870080148e-02 1.5661110659284140e-04 0.0000000000000000e+00  2.4749969762994185e-02 -1.3178816235883655e-03 0.0000000000000000e+00  2.4746596906540276e-02 -2.8044593177078618e-03 0.0000000000000000e+00  2.7045496485873670e-02 3.0998598161386922e-03 0.0000000000000000e+00  2.7048595999348207e-02 1.6272451456390987e-03 0.0000000000000000e+00  2.7047986118968786e-02 1.6274361186483961e-04 0.0000000000000000e+00  2.7044636073474862e-02 -1.3019876554017842e-03 0.0000000000000000e+00  2.7037344175613567e-02 -2.7745546420243549e-03 0.0000000000000000e+00  2.9302497647529416e-02 3.0678102073759140e-03 0.0000000000000000e+00  2.9307112506398475e-02 1.6166244341358394e-03 0.0000000000000000e+00  2.9306901520122747e-02 1.6836614474940534e-04 0.0000000000000000e+00  2.9302662769822605e-02 -1.2796620175593847e-03 0.0000000000000000e+00  2.9293771020178334e-02 -2.7305155211608759e-03 0.0000000000000000e+00  3.1517387959374470e-02 3.0306442057134401e-03 0.0000000000000000e+00  3.1523744399556811e-02 1.6018561788576895e-03 0.0000000000000000e+00  3.1524613603870447e-02 1.7380315981116944e-04 0.0000000000000000e+00  3.1520318697566621e-02 -1.2543999120312543e-03 0.0000000000000000e+00  3.1510344322567489e-02 -2.6828134824271317e-03 0.0000000000000000e+00  3.3698791440114360e-02 2.9940550109525668e-03 0.0000000000000000e+00  3.3703679319505041e-02 1.5868386395273748e-03 0.0000000000000000e+00  3.3704229966996249e-02 1.7835717937367336e-04 0.0000000000000000e+00  3.3700342174586138e-02 -1.2296335805475997e-03 0.0000000000000000e+00  3.3691815499594248e-02 -2.6360187167529955e-03 0.0000000000000000e+00  3.5842355479627788e-02 2.9598019323418597e-03 0.0000000000000000e+00  3.5847564022068019e-02 1.5725631831713482e-03 0.0000000000000000e+00  3.5848331723206450e-02 1.8275707248118251e-04 0.0000000000000000e+00  3.5844727440070938e-02 -1.2071877358853802e-03 0.0000000000000000e+00  3.5836553896520192e-02 -2.5941574443887699e-03 0.0000000000000000e+00  3.7959701687213708e-02 2.9332179531787236e-03 0.0000000000000000e+00  3.7962130765757114e-02 1.5617165292198516e-03 0.0000000000000000e+00  3.7961867321367547e-02 1.8664872197994637e-04 0.0000000000000000e+00  3.7958970929797858e-02 -1.1888564119683883e-03 0.0000000000000000e+00  3.7953359546718947e-02 -2.5599246483342386e-03 0.0000000000000000e+00  4.0053856274445875e-02 2.9153285171666680e-03 0.0000000000000000e+00  4.0054604688451137e-02 1.5548696261876512e-03 0.0000000000000000e+00  4.0054498821103374e-02 1.9013164187570419e-04 0.0000000000000000e+00  4.0052278716832923e-02 -1.1756881101301394e-03 0.0000000000000000e+00  4.0048716657733692e-02 -2.5365810511821323e-03 0.0000000000000000e+00  4.2137263921955680e-02 2.9082593928476861e-03 0.0000000000000000e+00  4.2137054303890226e-02 1.5515494006293773e-03 0.0000000000000000e+00  4.2136766386940423e-02 1.9257288093476384e-04 0.0000000000000000e+00  4.2135679317237176e-02 -1.1673386983074442e-03 0.0000000000000000e+00  4.2133785985982254e-02 -2.5236749805818753e-03 0.0000000000000000e+00  4.4222526765091093e-02 2.9078211515915966e-03 0.0000000000000000e+00  4.4219556358969486e-02 1.5517066770430442e-03 0.0000000000000000e+00  4.4218679798454910e-02 1.9492181388598037e-04 0.0000000000000000e+00  4.4217958309694216e-02 -1.1623440930879612e-03 0.0000000000000000e+00  4.4218613442718310e-02 -2.5166284938790391e-03 0.0000000000000000e+00  4.6305256463629700e-02 2.9097309359578734e-03 0.0000000000000000e+00  4.6304218628353329e-02 1.5540460796973901e-03 0.0000000000000000e+00  4.6303676296775717e-02 1.9794558794369071e-04 0.0000000000000000e+00  4.6302427240060069e-02 -1.1594347018588282e-03 0.0000000000000000e+00  4.6301592172984671e-02 -2.5151818264703288e-03 0.0000000000000000e+00  </DataArray> 
</PointData> 
</Piece>
</UnstructuredGrid>
</VTKFile>