<?xml version="1.0"?>
<VTKFile type="UnstructuredGrid"  version="0.1"  >
<UnstructuredGrid>
<Piece  NumberOfPoints="135" NumberOfCells="208">
<Points>
<DataArray  type="Float64"  NumberOfComponents="3"  format="ascii">-0.05 0 0  -0.025 0 0  0 0 0  0.02500000000000001 0 0  0.05 0 0  -0.05 0.03846153846153846 0  -0.025 0.03846153846153846 0  0 0.03846153846153846 0  0.02500000000000001 0.03846153846153846 0  0.05 0.03846153846153846 0  -0.05 0.07692307692307693 0  -0.025 0.07692307692307693 0  0 0.07692307692307693 0  0.02500000000000001 0.07692307692307693 0  0.05 0.07692307692307693 0  -0.05 0.1153846153846154 0  -0.025 0.1153846153846154 0  0 0.1153846153846154 0  0.02500000000000001 0.1153846153846154 0  0.05 0.1153846153846154 0  -0.05 0.1538461538461539 0  -0.025 0.1538461538461539 0  0 0.1538461538461539 0  0.02500000000000001 0.1538461538461539 0  0.05 0.1538461538461539 0  -0.05 0.1923076923076923 0  -0.025 0.1923076923076923 0  0 0.1923076923076923 0  0.02500000000000001 0.1923076923076923 0  0.05 0.1923076923076923 0  -0.05 0.2307692307692308 0  -0.025 0.2307692307692308 0  0 0.2307692307692308 0  0.02500000000000001 0.2307692307692308 0  0.05 0.2307692307692308 0  -0.05 0.2692307692307692 0  -0.025 0.2692307692307692 0  0 0.2692307692307692 0  0.02500000000000001 0.2692307692307692 0  0.05 0.2692307692307692 0  -0.05 0.3076923076923077 0  -0.025 0.3076923076923077 0  0 0.3076923076923077 0  0.02500000000000001 0.3076923076923077 0  0.05 0.3076923076923077 0  -0.05 0.3461538461538461 0  -0.025 0.3461538461538461 0  0 0.3461538461538461 0  0.02500000000000001 0.3461538461538461 0  0.05 0.3461538461538461 0  -0.05 0.3846153846153846 0  -0.025 0.3846153846153846 0  0 0.3846153846153846 0  0.02500000000000001 0.3846153846153846 0  0.05 0.3846153846153846 0  -0.05 0.4230769230769231 0  -0.025 0.4230769230769231 0  0 0.4230769230769231 0  0.02500000000000001 0.4230769230769231 0  0.05 0.4230769230769231 0  -0.05 0.4615384615384616 0  -0.025 0.4615384615384616 0  0 0.4615384615384616 0  0.02500000000000001 0.4615384615384616 0  0.05 0.4615384615384616 0  -0.05 0.5 0  -0.025 0.5 0  0 0.5 0  0.02500000000000001 0.5 0  0.05 0.5 0  -0.05 0.5384615384615384 0  -0.025 0.5384615384615384 0  0 0.5384615384615384 0  0.02500000000000001 0.5384615384615384 0  0.05 0.5384615384615384 0  -0.05 0.5769230769230769 0  -0.025 0.5769230769230769 0  0 0.5769230769230769 0  0.02500000000000001 0.5769230769230769 0  0.05 0.5769230769230769 0  -0.05 0.6153846153846154 0  -0.025 0.6153846153846154 0  0 0.6153846153846154 0  0.02500000000000001 0.6153846153846154 0  0.05 0.6153846153846154 0  -0.05 0.6538461538461539 0  -0.025 0.6538461538461539 0  0 0.6538461538461539 0  0.02500000000000001 0.6538461538461539 0  0.05 0.6538461538461539 0  -0.05 0.6923076923076923 0  -0.025 0.6923076923076923 0  0 0.6923076923076923 0  0.02500000000000001 0.6923076923076923 0  0.05 0.6923076923076923 0  -0.05 0.7307692307692307 0  -0.025 0.7307692307692307 0  0 0.7307692307692307 0  0.02500000000000001 0.7307692307692307 0  0.05 0.7307692307692307 0  -0.05 0.7692307692307693 0  -0.025 0.7692307692307693 0  0 0.7692307692307693 0  0.02500000000000001 0.7692307692307693 0  0.05 0.7692307692307693 0  -0.05 0.8076923076923077 0  -0.025 0.8076923076923077 0  0 0.8076923076923077 0  0.02500000000000001 0.8076923076923077 0  0.05 0.8076923076923077 0  -0.05 0.8461538461538461 0  -0.025 0.8461538461538461 0  0 0.8461538461538461 0  0.02500000000000001 0.8461538461538461 0  0.05 0.8461538461538461 0  -0.05 0.8846153846153846 0  -0.025 0.8846153846153846 0  0 0.8846153846153846 0  0.02500000000000001 0.8846153846153846 0  0.05 0.8846153846153846 0  -0.05 0.9230769230769231 0  -0.025 0.9230769230769231 0  0 0.9230769230769231 0  0.02500000000000001 0.9230769230769231 0  0.05 0.9230769230769231 0  -0.05 0.9615384615384616 0  -0.025 0.9615384615384616 0  0 0.9615384615384616 0  0.02500000000000001 0.9615384615384616 0  0.05 0.9615384615384616 0  -0.05 1 0  -0.025 1 0  0 1 0  0.02500000000000001 1 0  0.05 1 0  </DataArray>
</Points>
<Cells>
<DataArray  type="UInt32"  Name="connectivity"  format="ascii">0 1 6  0 5 6  1 2 7  1 6 7  2 3 8  2 7 8  3 4 9  3 8 9  5 6 11  5 10 11  6 7 12  6 11 12  7 8 13  7 12 13  8 9 14  8 13 14  10 11 16  10 15 16  11 12 17  11 16 17  12 13 18  12 17 18  13 14 19  13 18 19  15 16 21  15 20 21  16 17 22  16 21 22  17 18 23  17 22 23  18 19 24  18 23 24  20 21 26  20 25 26  21 22 27  21 26 27  22 23 28  22 27 28  23 24 29  23 28 29  25 26 31  25 30 31  26 27 32  26 31 32  27 28 33  27 32 33  28 29 34  28 33 34  30 31 36  30 35 36  31 32 37  31 36 37  32 33 38  32 37 38  33 34 39  33 38 39  35 36 41  35 40 41  36 37 42  36 41 42  37 38 43  37 42 43  38 39 44  38 43 44  40 41 46  40 45 46  41 42 47  41 46 47  42 43 48  42 47 48  43 44 49  43 48 49  45 46 51  45 50 51  46 47 52  46 51 52  47 48 53  47 52 53  48 49 54  48 53 54  50 51 56  50 55 56  51 52 57  51 56 57  52 53 58  52 57 58  53 54 59  53 58 59  55 56 61  55 60 61  56 57 62  56 61 62  57 58 63  57 62 63  58 59 64  58 63 64  60 61 66  60 65 66  61 62 67  61 66 67  62 63 68  62 67 68  63 64 69  63 68 69  65 66 71  65 70 71  66 67 72  66 71 72  67 68 73  67 72 73  68 69 74  68 73 74  70 71 76  70 75 76  71 72 77  71 76 77  72 73 78  72 77 78  73 74 79  73 78 79  75 76 81  75 80 81  76 77 82  76 81 82  77 78 83  77 82 83  78 79 84  78 83 84  80 81 86  80 85 86  81 82 87  81 86 87  82 83 88  82 87 88  83 84 89  83 88 89  85 86 91  85 90 91  86 87 92  86 91 92  87 88 93  87 92 93  88 89 94  88 93 94  90 91 96  90 95 96  91 92 97  91 96 97  92 93 98  92 97 98  93 94 99  93 98 99  95 96 101  95 100 101  96 97 102  96 101 102  97 98 103  97 102 103  98 99 104  98 103 104  100 101 106  100 105 106  101 102 107  101 106 107  102 103 108  102 107 108  103 104 109  103 108 109  105 106 111  105 110 111  106 107 112  106 111 112  107 108 113  107 112 113  108 109 114  108 113 114  110 111 116  110 115 116  111 112 117  111 116 117  112 113 118  112 117 118  113 114 119  113 118 119  115 116 121  115 120 121  116 117 122  116 121 122  117 118 123  117 122 123  118 119 124  118 123 124  120 121 126  120 125 126  121 122 127  121 126 127  122 123 128  122 127 128  123 124 129  123 128 129  125 126 131  125 130 131  126 127 132  126 131 132  127 128 133  127 132 133  128 129 134  128 133 134  </DataArray>
<DataArray  type="UInt32"  Name="offsets"  format="ascii">3 6 9 12 15 18 21 24 27 30 33 36 39 42 45 48 51 54 57 60 63 66 69 72 75 78 81 84 87 90 93 96 99 102 105 108 111 114 117 120 123 126 129 132 135 138 141 144 147 150 153 156 159 162 165 168 171 174 177 180 183 186 189 192 195 198 201 204 207 210 213 216 219 222 225 228 231 234 237 240 243 246 249 252 255 258 261 264 267 270 273 276 279 282 285 288 291 294 297 300 303 306 309 312 315 318 321 324 327 330 333 336 339 342 345 348 351 354 357 360 363 366 369 372 375 378 381 384 387 390 393 396 399 402 405 408 411 414 417 420 423 426 429 432 435 438 441 444 447 450 453 456 459 462 465 468 471 474 477 480 483 486 489 492 495 498 501 504 507 510 513 516 519 522 525 528 531 534 537 540 543 546 549 552 555 558 561 564 567 570 573 576 579 582 585 588 591 594 597 600 603 606 609 612 615 618 621 624 </DataArray>
<DataArray  type="UInt8"  Name="types"  format="ascii">5 5 5 5 5 5 5 5 5 5 5 5 5 5 5 5 5 5 5 5 5 5 5 5 5 5 5 5 5 5 5 5 5 5 5 5 5 5 5 5 5 5 5 5 5 5 5 5 5 5 5 5 5 5 5 5 5 5 5 5 5 5 5 5 5 5 5 5 5 5 5 5 5 5 5 5 5 5 5 5 5 5 5 5 5 5 5 5 5 5 5 5 5 5 5 5 5 5 5 5 5 5 5 5 5 5 5 5 5 5 5 5 5 5 5 5 5 5 5 5 5 5 5 5 5 5 5 5 5 5 5 5 5 5 5 5 5 5 5 5 5 5 5 5 5 5 5 5 5 5 5 5 5 5 5 5 5 5 5 5 5 5 5 5 5 5 5 5 5 5 5 5 5 5 5 5 5 5 5 5 5 5 5 5 5 5 5 5 5 5 5 5 5 5 5 5 5 5 5 5 5 5 5 5 5 5 5 5 </DataArray>
</Cells>
<PointData  Vectors="Displacement"> 
<DataArray  type="Float64"  Name="Displacement"  NumberOfComponents="3" format="ascii">-4.6757490568100304e-16 2.9379377849182227e-18 0.0000000000000000e+00  0.0000000000000000e+00 0.0000000000000000e+00 0.0000000000000000e+00  0.0000000000000000e+00 0.0000000000000000e+00 0.0000000000000000e+00  -5.6255085415768140e-17 8.8765209967485744e-19 0.0000000000000000e+00  1.6876525624730443e-16 -2.6629562990245723e-18 0.0000000000000000e+00  1.1730720755905137e-04 1.9174102836807096e-04 0.0000000000000000e+00  7.3232461867814183e-05 9.5987904647277879e-05 0.0000000000000000e+00  5.6331291098753243e-05 3.6278665267359941e-06 0.0000000000000000e+00  6.8858974781707159e-05 -8.7967889057317342e-05 0.0000000000000000e+00  1.1038068651423867e-04 -1.8552146965755795e-04 0.0000000000000000e+00  3.3243446062477579e-04 3.8811163458581425e-04 0.0000000000000000e+00  2.8967547647486557e-04 1.9764448633365284e-04 0.0000000000000000e+00  2.7516091548850216e-04 7.3137529058584246e-06 0.0000000000000000e+00  2.8833126386775470e-04 -1.8322833023884296e-04 0.0000000000000000e+00  3.2852941772035238e-04 -3.7361362603792730e-04 0.0000000000000000e+00  7.0232214691626270e-04 5.8909829056055828e-04 0.0000000000000000e+00  6.5860577786629724e-04 2.9952011823088651e-04 0.0000000000000000e+00  6.4377506136634763e-04 1.1018129560039697e-05 0.0000000000000000e+00  6.5635700480273990e-04 -2.7755337252845192e-04 0.0000000000000000e+00  6.9723482207252835e-04 -5.6643072244935938e-04 0.0000000000000000e+00  1.2270801595331720e-03 7.9000178430948934e-04 0.0000000000000000e+00  1.1844983798557029e-03 4.0056041309370470e-04 0.0000000000000000e+00  1.1708869434653344e-03 1.4962805708138099e-05 0.0000000000000000e+00  1.1826885523078935e-03 -3.7098206541376789e-04 0.0000000000000000e+00  1.2225658349147624e-03 -7.6023388438906634e-04 0.0000000000000000e+00  1.9068618891063425e-03 9.8414795906237151e-04 0.0000000000000000e+00  1.8672829835431554e-03 4.9726044428268911e-04 0.0000000000000000e+00  1.8543614022964775e-03 1.7968273779634910e-05 0.0000000000000000e+00  1.8660513517533667e-03 -4.6071357772826932e-04 0.0000000000000000e+00  1.9036894992558312e-03 -9.4626272309051023e-04 0.0000000000000000e+00  2.7341173199457083e-03 1.1610576229036298e-03 0.0000000000000000e+00  2.6967339672834875e-03 5.8737895952224524e-04 0.0000000000000000e+00  2.6835480722596306e-03 2.1468269281242892e-05 0.0000000000000000e+00  2.6938608635881647e-03 -5.4521345679367083e-04 0.0000000000000000e+00  2.7289203674562192e-03 -1.1179475908818961e-03 0.0000000000000000e+00  3.6830363611783101e-03 1.3209613199434438e-03 0.0000000000000000e+00  3.6497970049703303e-03 6.7004948908428645e-04 0.0000000000000000e+00  3.6383425342116577e-03 2.4471848464169294e-05 0.0000000000000000e+00  3.6481704187308027e-03 -6.2173001142022926e-04 0.0000000000000000e+00  3.6794634585468498e-03 -1.2740493183407281e-03 0.0000000000000000e+00  4.7478479743294846e-03 1.4685588846496556e-03 0.0000000000000000e+00  4.7159178879815642e-03 7.4567182337067334e-04 0.0000000000000000e+00  4.7054431825883005e-03 2.6603301243600241e-05 0.0000000000000000e+00  4.7153893213154642e-03 -6.9295856631002733e-04 0.0000000000000000e+00  4.7453779896074197e-03 -1.4157940316616500e-03 0.0000000000000000e+00  5.9144345393550837e-03 1.6084417955933414e-03 0.0000000000000000e+00  5.8835192461960603e-03 8.1753159656058774e-04 0.0000000000000000e+00  5.8733828253711923e-03 2.8668429649309549e-05 0.0000000000000000e+00  5.8825197730991170e-03 -7.6085382495338352e-04 0.0000000000000000e+00  5.9111559205810051e-03 -1.5504098727743495e-03 0.0000000000000000e+00  7.1825880617731432e-03 1.7479807065232807e-03 0.0000000000000000e+00  7.1509976543374766e-03 8.8992828688529721e-04 0.0000000000000000e+00  7.1401162839690073e-03 3.1319246467227022e-05 0.0000000000000000e+00  7.1488852031351665e-03 -8.2746177668052484e-04 0.0000000000000000e+00  7.1775132769508129e-03 -1.6855529046241457e-03 0.0000000000000000e+00  8.5543364438561090e-03 1.8910390979414388e-03 0.0000000000000000e+00  8.5223057390578384e-03 9.6242820833838233e-04 0.0000000000000000e+00  8.5120548939492877e-03 3.3450304004750030e-05 0.0000000000000000e+00  8.5214108459420942e-03 -8.9558305824911227e-04 0.0000000000000000e+00  8.5510581884188121e-03 -1.8233818479283105e-03 0.0000000000000000e+00  1.0036856945931859e-02 2.0367780275063296e-03 0.0000000000000000e+00  1.0005362938169700e-02 1.0353252259133693e-03 0.0000000000000000e+00  9.9943938700320246e-03 3.5285604183835664e-05 0.0000000000000000e+00  1.0002826191513619e-02 -9.6477840855511987e-04 0.0000000000000000e+00  1.0032099735655048e-02 -1.9646123492352112e-03 0.0000000000000000e+00  1.1635727437566759e-02 2.1816798009088000e-03 0.0000000000000000e+00  1.1602982902086017e-02 1.1089642976605091e-03 0.0000000000000000e+00  1.1591679614855908e-02 3.8419028411368235e-05 0.0000000000000000e+00  1.1600158990643279e-02 -1.0326797362574987e-03 0.0000000000000000e+00  1.1629409678371130e-02 -2.1060589806750156e-03 0.0000000000000000e+00  1.3340976470817447e-02 2.3248770309624136e-03 0.0000000000000000e+00  1.3311084327026032e-02 1.1809005114579735e-03 0.0000000000000000e+00  1.3301819739971682e-02 4.0937467939285666e-05 0.0000000000000000e+00  1.3310551984168887e-02 -1.0994048114973455e-03 0.0000000000000000e+00  1.3338541974290564e-02 -2.2430096319626981e-03 0.0000000000000000e+00  1.5161171301585360e-02 2.4622884426101083e-03 0.0000000000000000e+00  1.5131242426187706e-02 1.2502132505016056e-03 0.0000000000000000e+00  1.5120843250198739e-02 4.3910489669222587e-05 0.0000000000000000e+00  1.5129064381203376e-02 -1.1621677675582216e-03 0.0000000000000000e+00  1.5155917391081800e-02 -2.3727102086872438e-03 0.0000000000000000e+00  1.7078372183031244e-02 2.5888487494957532e-03 0.0000000000000000e+00  1.7051933134577809e-02 1.3155481564727611e-03 0.0000000000000000e+00  1.7043190702892078e-02 4.8165844797627798e-05 0.0000000000000000e+00  1.7049938454926996e-02 -1.2196873344287604e-03 0.0000000000000000e+00  1.7073592608262907e-02 -2.4929122455337018e-03 0.0000000000000000e+00  1.9091174288433398e-02 2.7037739617582863e-03 0.0000000000000000e+00  1.9067987603913268e-02 1.3723910035548957e-03 0.0000000000000000e+00  1.9060698406224791e-02 5.1139674773024118e-05 0.0000000000000000e+00  1.9066750396781202e-02 -1.2700919612404179e-03 0.0000000000000000e+00  1.9087343059820135e-02 -2.6003386306022876e-03 0.0000000000000000e+00  2.1188382247168659e-02 2.7985407954247074e-03 0.0000000000000000e+00  2.1168819071344974e-02 1.4210866591626160e-03 0.0000000000000000e+00  2.1161777224887119e-02 5.4511727572642400e-05 0.0000000000000000e+00  2.1166218932650017e-02 -1.3122333507045180e-03 0.0000000000000000e+00  2.1183240202152315e-02 -2.6886087147104556e-03 0.0000000000000000e+00  2.3345992550260892e-02 2.8728269530283400e-03 0.0000000000000000e+00  2.3331067700009058e-02 1.4605294448363070e-03 0.0000000000000000e+00  2.3325697250633017e-02 5.8530668849876909e-05 0.0000000000000000e+00  2.3328799779345832e-02 -1.3443685170531146e-03 0.0000000000000000e+00  2.3341170399919921e-02 -2.7569134911226978e-03 0.0000000000000000e+00  2.5551949008439545e-02 2.9293279374713157e-03 0.0000000000000000e+00  2.5539401037758390e-02 1.4913376092077545e-03 0.0000000000000000e+00  2.5535270623651730e-02 6.1988192285274824e-05 0.0000000000000000e+00  2.5538215501872907e-02 -1.3679708535211800e-03 0.0000000000000000e+00  2.5548076687303412e-02 -2.8055228339755505e-03 0.0000000000000000e+00  2.7784013494449835e-02 2.9683980316305091e-03 0.0000000000000000e+00  2.7775916891236273e-02 1.5135702249807436e-03 0.0000000000000000e+00  2.7773251739148484e-02 6.4900195928201267e-05 0.0000000000000000e+00  2.7774583813448279e-02 -1.3840600784483269e-03 0.0000000000000000e+00  2.7780559848781871e-02 -2.8379871862767442e-03 0.0000000000000000e+00  3.0037381303285249e-02 2.9953143756526728e-03 0.0000000000000000e+00  3.0030521040798810e-02 1.5293614482699118e-03 0.0000000000000000e+00  3.0028338626063085e-02 6.8190803576966995e-05 0.0000000000000000e+00  3.0029424179329189e-02 -1.3933578204088724e-03 0.0000000000000000e+00  3.0033790863915232e-02 -2.8583495834706239e-03 0.0000000000000000e+00  3.2300498312532726e-02 3.0130199972544023e-03 0.0000000000000000e+00  3.2295782266826563e-02 1.5400799238346266e-03 0.0000000000000000e+00  3.2294803215876230e-02 7.0842650020536404e-05 0.0000000000000000e+00  3.2295361532976512e-02 -1.3983632142783894e-03 0.0000000000000000e+00  3.2298226890396964e-02 -2.8699371967952866e-03 0.0000000000000000e+00  3.4570840030258128e-02 3.0258690550220534e-03 0.0000000000000000e+00  3.4566885086743118e-02 1.5476651355929862e-03 0.0000000000000000e+00  3.4565497346591582e-02 7.2833148232338810e-05 0.0000000000000000e+00  3.4565914942643515e-02 -1.4015937481717863e-03 0.0000000000000000e+00  3.4568153459806183e-02 -2.8775746898627354e-03 0.0000000000000000e+00  3.6849884918758763e-02 3.0355269470780043e-03 0.0000000000000000e+00  3.6844920387303880e-02 1.5542818667145858e-03 0.0000000000000000e+00  3.6842751646432817e-02 7.5528946990540116e-05 0.0000000000000000e+00  3.6842628347562835e-02 -1.4034097922371121e-03 0.0000000000000000e+00  3.6845540450963964e-02 -2.8828952283053251e-03 0.0000000000000000e+00  3.9125853874353071e-02 3.0394336236291915e-03 0.0000000000000000e+00  3.9124047648455208e-02 1.5591319991658588e-03 0.0000000000000000e+00  3.9123482848135160e-02 7.8618879860746163e-05 0.0000000000000000e+00  3.9123946830561855e-02 -1.4030933120249313e-03 0.0000000000000000e+00  3.9124513486696780e-02 -2.8861236130792943e-03 0.0000000000000000e+00  </DataArray> 
</PointData> 
</Piece>
</UnstructuredGrid>
</VTKFile>