<?xml version="1.0"?>
<VTKFile type="UnstructuredGrid"  version="0.1"  >
<UnstructuredGrid>
<Piece  NumberOfPoints="135" NumberOfCells="208">
<Points>
<DataArray  type="Float64"  NumberOfComponents="3"  format="ascii">-0.05 0 0  -0.025 0 0  0 0 0  0.02500000000000001 0 0  0.05 0 0  -0.05 0.03846153846153846 0  -0.025 0.03846153846153846 0  0 0.03846153846153846 0  0.02500000000000001 0.03846153846153846 0  0.05 0.03846153846153846 0  -0.05 0.07692307692307693 0  -0.025 0.07692307692307693 0  0 0.07692307692307693 0  0.02500000000000001 0.07692307692307693 0  0.05 0.07692307692307693 0  -0.05 0.1153846153846154 0  -0.025 0.1153846153846154 0  0 0.1153846153846154 0  0.02500000000000001 0.1153846153846154 0  0.05 0.1153846153846154 0  -0.05 0.1538461538461539 0  -0.025 0.1538461538461539 0  0 0.1538461538461539 0  0.02500000000000001 0.1538461538461539 0  0.05 0.1538461538461539 0  -0.05 0.1923076923076923 0  -0.025 0.1923076923076923 0  0 0.1923076923076923 0  0.02500000000000001 0.1923076923076923 0  0.05 0.1923076923076923 0  -0.05 0.2307692307692308 0  -0.025 0.2307692307692308 0  0 0.2307692307692308 0  0.02500000000000001 0.2307692307692308 0  0.05 0.2307692307692308 0  -0.05 0.2692307692307692 0  -0.025 0.2692307692307692 0  0 0.2692307692307692 0  0.02500000000000001 0.2692307692307692 0  0.05 0.2692307692307692 0  -0.05 0.3076923076923077 0  -0.025 0.3076923076923077 0  0 0.3076923076923077 0  0.02500000000000001 0.3076923076923077 0  0.05 0.3076923076923077 0  -0.05 0.3461538461538461 0  -0.025 0.3461538461538461 0  0 0.3461538461538461 0  0.02500000000000001 0.3461538461538461 0  0.05 0.3461538461538461 0  -0.05 0.3846153846153846 0  -0.025 0.3846153846153846 0  0 0.3846153846153846 0  0.02500000000000001 0.3846153846153846 0  0.05 0.3846153846153846 0  -0.05 0.4230769230769231 0  -0.025 0.4230769230769231 0  0 0.4230769230769231 0  0.02500000000000001 0.4230769230769231 0  0.05 0.4230769230769231 0  -0.05 0.4615384615384616 0  -0.025 0.4615384615384616 0  0 0.4615384615384616 0  0.02500000000000001 0.4615384615384616 0  0.05 0.4615384615384616 0  -0.05 0.5 0  -0.025 0.5 0  0 0.5 0  0.02500000000000001 0.5 0  0.05 0.5 0  -0.05 0.5384615384615384 0  -0.025 0.5384615384615384 0  0 0.5384615384615384 0  0.02500000000000001 0.5384615384615384 0  0.05 0.5384615384615384 0  -0.05 0.5769230769230769 0  -0.025 0.5769230769230769 0  0 0.5769230769230769 0  0.02500000000000001 0.5769230769230769 0  0.05 0.5769230769230769 0  -0.05 0.6153846153846154 0  -0.025 0.6153846153846154 0  0 0.6153846153846154 0  0.02500000000000001 0.6153846153846154 0  0.05 0.6153846153846154 0  -0.05 0.6538461538461539 0  -0.025 0.6538461538461539 0  0 0.6538461538461539 0  0.02500000000000001 0.6538461538461539 0  0.05 0.6538461538461539 0  -0.05 0.6923076923076923 0  -0.025 0.6923076923076923 0  0 0.6923076923076923 0  0.02500000000000001 0.6923076923076923 0  0.05 0.6923076923076923 0  -0.05 0.7307692307692307 0  -0.025 0.7307692307692307 0  0 0.7307692307692307 0  0.02500000000000001 0.7307692307692307 0  0.05 0.7307692307692307 0  -0.05 0.7692307692307693 0  -0.025 0.7692307692307693 0  0 0.7692307692307693 0  0.02500000000000001 0.7692307692307693 0  0.05 0.7692307692307693 0  -0.05 0.8076923076923077 0  -0.025 0.8076923076923077 0  0 0.8076923076923077 0  0.02500000000000001 0.8076923076923077 0  0.05 0.8076923076923077 0  -0.05 0.8461538461538461 0  -0.025 0.8461538461538461 0  0 0.8461538461538461 0  0.02500000000000001 0.8461538461538461 0  0.05 0.8461538461538461 0  -0.05 0.8846153846153846 0  -0.025 0.8846153846153846 0  0 0.8846153846153846 0  0.02500000000000001 0.8846153846153846 0  0.05 0.8846153846153846 0  -0.05 0.9230769230769231 0  -0.025 0.9230769230769231 0  0 0.9230769230769231 0  0.02500000000000001 0.9230769230769231 0  0.05 0.9230769230769231 0  -0.05 0.9615384615384616 0  -0.025 0.9615384615384616 0  0 0.9615384615384616 0  0.02500000000000001 0.9615384615384616 0  0.05 0.9615384615384616 0  -0.05 1 0  -0.025 1 0  0 1 0  0.02500000000000001 1 0  0.05 1 0  </DataArray>
</Points>
<Cells>
<DataArray  type="UInt32"  Name="connectivity"  format="ascii">0 1 6  0 5 6  1 2 7  1 6 7  2 3 8  2 7 8  3 4 9  3 8 9  5 6 11  5 10 11  6 7 12  6 11 12  7 8 13  7 12 13  8 9 14  8 13 14  10 11 16  10 15 16  11 12 17  11 16 17  12 13 18  12 17 18  13 14 19  13 18 19  15 16 21  15 20 21  16 17 22  16 21 22  17 18 23  17 22 23  18 19 24  18 23 24  20 21 26  20 25 26  21 22 27  21 26 27  22 23 28  22 27 28  23 24 29  23 28 29  25 26 31  25 30 31  26 27 32  26 31 32  27 28 33  27 32 33  28 29 34  28 33 34  30 31 36  30 35 36  31 32 37  31 36 37  32 33 38  32 37 38  33 34 39  33 38 39  35 36 41  35 40 41  36 37 42  36 41 42  37 38 43  37 42 43  38 39 44  38 43 44  40 41 46  40 45 46  41 42 47  41 46 47  42 43 48  42 47 48  43 44 49  43 48 49  45 46 51  45 50 51  46 47 52  46 51 52  47 48 53  47 52 53  48 49 54  48 53 54  50 51 56  50 55 56  51 52 57  51 56 57  52 53 58  52 57 58  53 54 59  53 58 59  55 56 61  55 60 61  56 57 62  56 61 62  57 58 63  57 62 63  58 59 64  58 63 64  60 61 66  60 65 66  61 62 67  61 66 67  62 63 68  62 67 68  63 64 69  63 68 69  65 66 71  65 70 71  66 67 72  66 71 72  67 68 73  67 72 73  68 69 74  68 73 74  70 71 76  70 75 76  71 72 77  71 76 77  72 73 78  72 77 78  73 74 79  73 78 79  75 76 81  75 80 81  76 77 82  76 81 82  77 78 83  77 82 83  78 79 84  78 83 84  80 81 86  80 85 86  81 82 87  81 86 87  82 83 88  82 87 88  83 84 89  83 88 89  85 86 91  85 90 91  86 87 92  86 91 92  87 88 93  87 92 93  88 89 94  88 93 94  90 91 96  90 95 96  91 92 97  91 96 97  92 93 98  92 97 98  93 94 99  93 98 99  95 96 101  95 100 101  96 97 102  96 101 102  97 98 103  97 102 103  98 99 104  98 103 104  100 101 106  100 105 106  101 102 107  101 106 107  102 103 108  102 107 108  103 104 109  103 108 109  105 106 111  105 110 111  106 107 112  106 111 112  107 108 113  107 112 113  108 109 114  108 113 114  110 111 116  110 115 116  111 112 117  111 116 117  112 113 118  112 117 118  113 114 119  113 118 119  115 116 121  115 120 121  116 117 122  116 121 122  117 118 123  117 122 123  118 119 124  118 123 124  120 121 126  120 125 126  121 122 127  121 126 127  122 123 128  122 127 128  123 124 129  123 128 129  125 126 131  125 130 131  126 127 132  126 131 132  127 128 133  127 132 133  128 129 134  128 133 134  </DataArray>
<DataArray  type="UInt32"  Name="offsets"  format="ascii">3 6 9 12 15 18 21 24 27 30 33 36 39 42 45 48 51 54 57 60 63 66 69 72 75 78 81 84 87 90 93 96 99 102 105 108 111 114 117 120 123 126 129 132 135 138 141 144 147 150 153 156 159 162 165 168 171 174 177 180 183 186 189 192 195 198 201 204 207 210 213 216 219 222 225 228 231 234 237 240 243 246 249 252 255 258 261 264 267 270 273 276 279 282 285 288 291 294 297 300 303 306 309 312 315 318 321 324 327 330 333 336 339 342 345 348 351 354 357 360 363 366 369 372 375 378 381 384 387 390 393 396 399 402 405 408 411 414 417 420 423 426 429 432 435 438 441 444 447 450 453 456 459 462 465 468 471 474 477 480 483 486 489 492 495 498 501 504 507 510 513 516 519 522 525 528 531 534 537 540 543 546 549 552 555 558 561 564 567 570 573 576 579 582 585 588 591 594 597 600 603 606 609 612 615 618 621 624 </DataArray>
<DataArray  type="UInt8"  Name="types"  format="ascii">5 5 5 5 5 5 5 5 5 5 5 5 5 5 5 5 5 5 5 5 5 5 5 5 5 5 5 5 5 5 5 5 5 5 5 5 5 5 5 5 5 5 5 5 5 5 5 5 5 5 5 5 5 5 5 5 5 5 5 5 5 5 5 5 5 5 5 5 5 5 5 5 5 5 5 5 5 5 5 5 5 5 5 5 5 5 5 5 5 5 5 5 5 5 5 5 5 5 5 5 5 5 5 5 5 5 5 5 5 5 5 5 5 5 5 5 5 5 5 5 5 5 5 5 5 5 5 5 5 5 5 5 5 5 5 5 5 5 5 5 5 5 5 5 5 5 5 5 5 5 5 5 5 5 5 5 5 5 5 5 5 5 5 5 5 5 5 5 5 5 5 5 5 5 5 5 5 5 5 5 5 5 5 5 5 5 5 5 5 5 5 5 5 5 5 5 5 5 5 5 5 5 5 5 5 5 5 5 </DataArray>
</Cells>
<PointData  Vectors="Displacement"> 
<DataArray  type="Float64"  Name="Displacement"  NumberOfComponents="3" format="ascii">-4.5158126947967267e-16 9.9421893309916993e-18 0.0000000000000000e+00  0.0000000000000000e+00 0.0000000000000000e+00 0.0000000000000000e+00  0.0000000000000000e+00 0.0000000000000000e+00 0.0000000000000000e+00  -5.7412537488293974e-17 1.5232827998042253e-18 0.0000000000000000e+00  1.7223761246488193e-16 -4.5698483994126760e-18 0.0000000000000000e+00  7.6888583547636590e-04 1.1529027682354749e-03 0.0000000000000000e+00  5.2674591117970830e-04 5.5508335298624977e-04 0.0000000000000000e+00  4.3476614446035850e-04 1.1134120438794416e-05 0.0000000000000000e+00  5.0734767068272757e-04 -5.2779049360261992e-04 0.0000000000000000e+00  7.4745442826786772e-04 -1.1393135437186507e-03 0.0000000000000000e+00  2.1383943673813949e-03 2.2427824838581797e-03 0.0000000000000000e+00  1.9135322156650814e-03 1.1142293423985873e-03 0.0000000000000000e+00  1.8360439268237752e-03 2.1888891201805791e-05 0.0000000000000000e+00  1.9080018153885716e-03 -1.0711902995945517e-03 0.0000000000000000e+00  2.1267191368206039e-03 -2.2032298405845257e-03 0.0000000000000000e+00  4.3172167882780093e-03 3.2726591294285532e-03 0.0000000000000000e+00  4.1078613575537531e-03 1.6336098982087754e-03 0.0000000000000000e+00  4.0367558738458086e-03 3.0992082359358493e-05 0.0000000000000000e+00  4.1037525617460685e-03 -1.5720154340927018e-03 0.0000000000000000e+00  4.3078889783309494e-03 -3.2107343112987730e-03 0.0000000000000000e+00  7.2545748700659522e-03 4.2321614544840822e-03 0.0000000000000000e+00  7.0597966729284154e-03 2.1179345646201043e-03 0.0000000000000000e+00  6.9925581330613322e-03 4.0239457182883184e-05 0.0000000000000000e+00  7.0534293060447529e-03 -2.0373178229100590e-03 0.0000000000000000e+00  7.2432442349294798e-03 -4.1511593983188369e-03 0.0000000000000000e+00  1.0893320131082487e-02 5.1209760609864548e-03 0.0000000000000000e+00  1.0713518118321714e-02 2.5673573191988628e-03 0.0000000000000000e+00  1.0651257317436902e-02 4.9948185374969908e-05 0.0000000000000000e+00  1.0708317777842376e-02 -2.4682584349469973e-03 0.0000000000000000e+00  1.0883674668116076e-02 -5.0229006110098524e-03 0.0000000000000000e+00  1.5184441267361310e-02 5.9410870500508622e-03 0.0000000000000000e+00  1.5018074163484184e-02 2.9821581819251953e-03 0.0000000000000000e+00  1.4961260576275552e-02 5.8340704793382781e-05 0.0000000000000000e+00  1.5013924261122821e-02 -2.8654774049094401e-03 0.0000000000000000e+00  1.5175172971448039e-02 -5.8254696356697059e-03 0.0000000000000000e+00  2.0068365808946099e-02 6.6928481593298552e-03 0.0000000000000000e+00  1.9917104326882575e-02 3.3624964900511199e-03 0.0000000000000000e+00  1.9864562038310610e-02 6.6394770513671694e-05 0.0000000000000000e+00  1.9912385343057670e-02 -3.2296763147928891e-03 0.0000000000000000e+00  2.0059902713460691e-02 -6.5587239826260411e-03 0.0000000000000000e+00  2.5496195139614021e-02 7.3779399029563712e-03 0.0000000000000000e+00  2.5356740699617172e-02 3.7113117281801704e-03 0.0000000000000000e+00  2.5307967267681471e-02 7.5193313415997199e-05 0.0000000000000000e+00  2.5351172627554892e-02 -3.5617743304891649e-03 0.0000000000000000e+00  2.5485868833893737e-02 -7.2301227308627916e-03 0.0000000000000000e+00  3.1414611369799707e-02 8.0052450689427068e-03 0.0000000000000000e+00  3.1287766844994444e-02 4.0293199013627292e-03 0.0000000000000000e+00  3.1244152239306322e-02 8.2111932052186137e-05 0.0000000000000000e+00  3.1284609641488943e-02 -3.8653487776779097e-03 0.0000000000000000e+00  3.1407763918430108e-02 -7.8419331193950552e-03 0.0000000000000000e+00  3.7786975253636543e-02 8.5779527980734006e-03 0.0000000000000000e+00  3.7671074802058023e-02 4.3194354834364410e-03 0.0000000000000000e+00  3.7630660336909871e-02 8.8604517987022206e-05 0.0000000000000000e+00  3.7666739825821985e-02 -4.1423639978127565e-03 0.0000000000000000e+00  3.7778671171036594e-02 -8.3999283967274244e-03 0.0000000000000000e+00  4.4572584033967071e-02 9.0983581352152496e-03 0.0000000000000000e+00  4.4466657661415575e-02 4.5843082849149159e-03 0.0000000000000000e+00  4.4429283242747641e-02 9.5781986120195073e-05 0.0000000000000000e+00  4.4461417449163168e-02 -4.3929724710021325e-03 0.0000000000000000e+00  4.4562730780880536e-02 -8.9082177447879947e-03 0.0000000000000000e+00  5.1728972553339449e-02 9.5691640815923473e-03 0.0000000000000000e+00  5.1635101421822260e-02 4.8226712895369532e-03 0.0000000000000000e+00  5.1602747866069616e-02 1.0233714141788555e-04 0.0000000000000000e+00  5.1631956317470577e-02 -4.6182339015747760e-03 0.0000000000000000e+00  5.1722410529827040e-02 -9.3647045877399467e-03 0.0000000000000000e+00  5.9228987124361532e-02 9.9891898735855449e-03 0.0000000000000000e+00  5.9144479369856964e-02 5.0352323424360385e-03 0.0000000000000000e+00  5.9114724710937185e-02 1.0799847948077195e-04 0.0000000000000000e+00  5.9140331265364575e-02 -4.8183608936282702e-03 0.0000000000000000e+00  5.9220699227365982e-02 -9.7715450849459214e-03 0.0000000000000000e+00  6.7022148301770376e-02 1.0355931079004935e-02 0.0000000000000000e+00  6.6949300648388818e-02 5.2228468491133506e-03 0.0000000000000000e+00  6.6922985549477301e-02 1.1474297697596689e-04 0.0000000000000000e+00  6.6944617517081889e-02 -4.9934207373962163e-03 0.0000000000000000e+00  6.7014128759831385e-02 -1.0126699364842097e-02 0.0000000000000000e+00  7.5072045193675940e-02 1.0674222832398352e-02 0.0000000000000000e+00  7.5008368892327995e-02 5.3856014633337276e-03 0.0000000000000000e+00  7.4986303008931526e-02 1.2063685383661440e-04 0.0000000000000000e+00  7.5006006767591255e-02 -5.1443960535226567e-03 0.0000000000000000e+00  7.5066403746290616e-02 -1.0433775713407343e-02 0.0000000000000000e+00  8.3342380376639297e-02 1.0948062448491131e-02 0.0000000000000000e+00  8.3287987467769956e-02 5.5254494497658704e-03 0.0000000000000000e+00  8.3268565406477230e-02 1.2532964693216802e-04 0.0000000000000000e+00  8.3285070665865518e-02 -5.2744311737924375e-03 0.0000000000000000e+00  8.3336581466544435e-02 -1.0696045468237126e-02 0.0000000000000000e+00  9.1799295809795872e-02 1.1178556953732816e-02 0.0000000000000000e+00  9.1753766467133374e-02 5.6442366133612441e-03 0.0000000000000000e+00  9.1736823571228782e-02 1.3093572985614399e-04 0.0000000000000000e+00  9.1749458107469942e-02 -5.3830139372293027e-03 0.0000000000000000e+00  9.1791843814656160e-02 -1.0917280971552451e-02 0.0000000000000000e+00  1.0041322422082398e-01 1.1369048275643060e-02 0.0000000000000000e+00  1.0037503087505363e-01 5.7428392063526091e-03 0.0000000000000000e+00  1.0036124717536506e-01 1.3604224534139332e-04 0.0000000000000000e+00  1.0037247894383058e-01 -5.4711711394711494e-03 0.0000000000000000e+00  1.0040734119003682e-01 -1.1098922410402745e-02 0.0000000000000000e+00  1.0914832694555543e-01 1.1521436220987329e-02 0.0000000000000000e+00  1.0911914600682357e-01 5.8217619439601964e-03 0.0000000000000000e+00  1.0910846745285604e-01 1.3997618123765080e-04 0.0000000000000000e+00  1.0911675273415858e-01 -5.5420749542077850e-03 0.0000000000000000e+00  1.0914354907394003e-01 -1.1240426146806157e-02 0.0000000000000000e+00  1.1798456705585141e-01 1.1640073665679620e-02 0.0000000000000000e+00  1.1796004506751608e-01 5.8844489060710520e-03 0.0000000000000000e+00  1.1795022017636160e-01 1.4479772106978825e-04 0.0000000000000000e+00  1.1795598700186878e-01 -5.5949631607810383e-03 0.0000000000000000e+00  1.1797665543308976e-01 -1.1350710560401607e-02 0.0000000000000000e+00  1.2688743780888678e-01 1.1728808148141652e-02 0.0000000000000000e+00  1.2687002436455191e-01 5.9325008558753474e-03 0.0000000000000000e+00  1.2686316834591488e-01 1.4911819933207697e-04 0.0000000000000000e+00  1.2686783077874458e-01 -5.6343792924823510e-03 0.0000000000000000e+00  1.2688291307164642e-01 -1.1431171334984971e-02 0.0000000000000000e+00  1.3584348402226362e-01 1.1792693028221732e-02 0.0000000000000000e+00  1.3583034517277748e-01 5.9665878579216033e-03 0.0000000000000000e+00  1.3582510606395440e-01 1.5203909663623872e-04 0.0000000000000000e+00  1.3582812571156525e-01 -5.6621003527939978e-03 0.0000000000000000e+00  1.3583854921994853e-01 -1.1485640499245608e-02 0.0000000000000000e+00  1.4483179840319066e-01 1.1834974668645075e-02 0.0000000000000000e+00  1.4482204168951013e-01 5.9914963389667113e-03 0.0000000000000000e+00  1.4481718115782899e-01 1.5579683111227233e-04 0.0000000000000000e+00  1.4481836162117326e-01 -5.6790504415347876e-03 0.0000000000000000e+00  1.4482508328897878e-01 -1.1521865674646593e-02 0.0000000000000000e+00  1.5383443449927237e-01 1.1861393182599140e-02 0.0000000000000000e+00  1.5382873048630591e-01 6.0074588275619836e-03 0.0000000000000000e+00  1.5382624400084080e-01 1.5908176117251322e-04 0.0000000000000000e+00  1.5382698561414429e-01 -5.6890984298777168e-03 0.0000000000000000e+00  1.5383068043290485e-01 -1.1542931130013322e-02 0.0000000000000000e+00  1.6285354566486748e-01 1.1877586910543374e-02 0.0000000000000000e+00  1.6284821174465655e-01 6.0165495651560794e-03 0.0000000000000000e+00  1.6284576433344902e-01 1.6117262975771295e-04 0.0000000000000000e+00  1.6284646932324368e-01 -5.6938401850957715e-03 0.0000000000000000e+00  1.6284991993600789e-01 -1.1552900720017224e-02 0.0000000000000000e+00  1.7187128877307278e-01 1.1883510587061196e-02 0.0000000000000000e+00  1.7186870070577989e-01 6.0226600920576644e-03 0.0000000000000000e+00  1.7186571255783950e-01 1.6397425924857822e-04 0.0000000000000000e+00  1.7186533820237615e-01 -5.6946801988855657e-03 0.0000000000000000e+00  1.7186595615261729e-01 -1.1554397591208550e-02 0.0000000000000000e+00  </DataArray> 
</PointData> 
</Piece>
</UnstructuredGrid>
</VTKFile>