<?xml version="1.0"?>
<VTKFile type="UnstructuredGrid"  version="0.1"  >
<UnstructuredGrid>
<Piece  NumberOfPoints="135" NumberOfCells="208">
<Points>
<DataArray  type="Float64"  NumberOfComponents="3"  format="ascii">-0.05 0 0  -0.025 0 0  0 0 0  0.02500000000000001 0 0  0.05 0 0  -0.05 0.03846153846153846 0  -0.025 0.03846153846153846 0  0 0.03846153846153846 0  0.02500000000000001 0.03846153846153846 0  0.05 0.03846153846153846 0  -0.05 0.07692307692307693 0  -0.025 0.07692307692307693 0  0 0.07692307692307693 0  0.02500000000000001 0.07692307692307693 0  0.05 0.07692307692307693 0  -0.05 0.1153846153846154 0  -0.025 0.1153846153846154 0  0 0.1153846153846154 0  0.02500000000000001 0.1153846153846154 0  0.05 0.1153846153846154 0  -0.05 0.1538461538461539 0  -0.025 0.1538461538461539 0  0 0.1538461538461539 0  0.02500000000000001 0.1538461538461539 0  0.05 0.1538461538461539 0  -0.05 0.1923076923076923 0  -0.025 0.1923076923076923 0  0 0.1923076923076923 0  0.02500000000000001 0.1923076923076923 0  0.05 0.1923076923076923 0  -0.05 0.2307692307692308 0  -0.025 0.2307692307692308 0  0 0.2307692307692308 0  0.02500000000000001 0.2307692307692308 0  0.05 0.2307692307692308 0  -0.05 0.2692307692307692 0  -0.025 0.2692307692307692 0  0 0.2692307692307692 0  0.02500000000000001 0.2692307692307692 0  0.05 0.2692307692307692 0  -0.05 0.3076923076923077 0  -0.025 0.3076923076923077 0  0 0.3076923076923077 0  0.02500000000000001 0.3076923076923077 0  0.05 0.3076923076923077 0  -0.05 0.3461538461538461 0  -0.025 0.3461538461538461 0  0 0.3461538461538461 0  0.02500000000000001 0.3461538461538461 0  0.05 0.3461538461538461 0  -0.05 0.3846153846153846 0  -0.025 0.3846153846153846 0  0 0.3846153846153846 0  0.02500000000000001 0.3846153846153846 0  0.05 0.3846153846153846 0  -0.05 0.4230769230769231 0  -0.025 0.4230769230769231 0  0 0.4230769230769231 0  0.02500000000000001 0.4230769230769231 0  0.05 0.4230769230769231 0  -0.05 0.4615384615384616 0  -0.025 0.4615384615384616 0  0 0.4615384615384616 0  0.02500000000000001 0.4615384615384616 0  0.05 0.4615384615384616 0  -0.05 0.5 0  -0.025 0.5 0  0 0.5 0  0.02500000000000001 0.5 0  0.05 0.5 0  -0.05 0.5384615384615384 0  -0.025 0.5384615384615384 0  0 0.5384615384615384 0  0.02500000000000001 0.5384615384615384 0  0.05 0.5384615384615384 0  -0.05 0.5769230769230769 0  -0.025 0.5769230769230769 0  0 0.5769230769230769 0  0.02500000000000001 0.5769230769230769 0  0.05 0.5769230769230769 0  -0.05 0.6153846153846154 0  -0.025 0.6153846153846154 0  0 0.6153846153846154 0  0.02500000000000001 0.6153846153846154 0  0.05 0.6153846153846154 0  -0.05 0.6538461538461539 0  -0.025 0.6538461538461539 0  0 0.6538461538461539 0  0.02500000000000001 0.6538461538461539 0  0.05 0.6538461538461539 0  -0.05 0.6923076923076923 0  -0.025 0.6923076923076923 0  0 0.6923076923076923 0  0.02500000000000001 0.6923076923076923 0  0.05 0.6923076923076923 0  -0.05 0.7307692307692307 0  -0.025 0.7307692307692307 0  0 0.7307692307692307 0  0.02500000000000001 0.7307692307692307 0  0.05 0.7307692307692307 0  -0.05 0.7692307692307693 0  -0.025 0.7692307692307693 0  0 0.7692307692307693 0  0.02500000000000001 0.7692307692307693 0  0.05 0.7692307692307693 0  -0.05 0.8076923076923077 0  -0.025 0.8076923076923077 0  0 0.8076923076923077 0  0.02500000000000001 0.8076923076923077 0  0.05 0.8076923076923077 0  -0.05 0.8461538461538461 0  -0.025 0.8461538461538461 0  0 0.8461538461538461 0  0.02500000000000001 0.8461538461538461 0  0.05 0.8461538461538461 0  -0.05 0.8846153846153846 0  -0.025 0.8846153846153846 0  0 0.8846153846153846 0  0.02500000000000001 0.8846153846153846 0  0.05 0.8846153846153846 0  -0.05 0.9230769230769231 0  -0.025 0.9230769230769231 0  0 0.9230769230769231 0  0.02500000000000001 0.9230769230769231 0  0.05 0.9230769230769231 0  -0.05 0.9615384615384616 0  -0.025 0.9615384615384616 0  0 0.9615384615384616 0  0.02500000000000001 0.9615384615384616 0  0.05 0.9615384615384616 0  -0.05 1 0  -0.025 1 0  0 1 0  0.02500000000000001 1 0  0.05 1 0  </DataArray>
</Points>
<Cells>
<DataArray  type="UInt32"  Name="connectivity"  format="ascii">0 1 6  0 5 6  1 2 7  1 6 7  2 3 8  2 7 8  3 4 9  3 8 9  5 6 11  5 10 11  6 7 12  6 11 12  7 8 13  7 12 13  8 9 14  8 13 14  10 11 16  10 15 16  11 12 17  11 16 17  12 13 18  12 17 18  13 14 19  13 18 19  15 16 21  15 20 21  16 17 22  16 21 22  17 18 23  17 22 23  18 19 24  18 23 24  20 21 26  20 25 26  21 22 27  21 26 27  22 23 28  22 27 28  23 24 29  23 28 29  25 26 31  25 30 31  26 27 32  26 31 32  27 28 33  27 32 33  28 29 34  28 33 34  30 31 36  30 35 36  31 32 37  31 36 37  32 33 38  32 37 38  33 34 39  33 38 39  35 36 41  35 40 41  36 37 42  36 41 42  37 38 43  37 42 43  38 39 44  38 43 44  40 41 46  40 45 46  41 42 47  41 46 47  42 43 48  42 47 48  43 44 49  43 48 49  45 46 51  45 50 51  46 47 52  46 51 52  47 48 53  47 52 53  48 49 54  48 53 54  50 51 56  50 55 56  51 52 57  51 56 57  52 53 58  52 57 58  53 54 59  53 58 59  55 56 61  55 60 61  56 57 62  56 61 62  57 58 63  57 62 63  58 59 64  58 63 64  60 61 66  60 65 66  61 62 67  61 66 67  62 63 68  62 67 68  63 64 69  63 68 69  65 66 71  65 70 71  66 67 72  66 71 72  67 68 73  67 72 73  68 69 74  68 73 74  70 71 76  70 75 76  71 72 77  71 76 77  72 73 78  72 77 78  73 74 79  73 78 79  75 76 81  75 80 81  76 77 82  76 81 82  77 78 83  77 82 83  78 79 84  78 83 84  80 81 86  80 85 86  81 82 87  81 86 87  82 83 88  82 87 88  83 84 89  83 88 89  85 86 91  85 90 91  86 87 92  86 91 92  87 88 93  87 92 93  88 89 94  88 93 94  90 91 96  90 95 96  91 92 97  91 96 97  92 93 98  92 97 98  93 94 99  93 98 99  95 96 101  95 100 101  96 97 102  96 101 102  97 98 103  97 102 103  98 99 104  98 103 104  100 101 106  100 105 106  101 102 107  101 106 107  102 103 108  102 107 108  103 104 109  103 108 109  105 106 111  105 110 111  106 107 112  106 111 112  107 108 113  107 112 113  108 109 114  108 113 114  110 111 116  110 115 116  111 112 117  111 116 117  112 113 118  112 117 118  113 114 119  113 118 119  115 116 121  115 120 121  116 117 122  116 121 122  117 118 123  117 122 123  118 119 124  118 123 124  120 121 126  120 125 126  121 122 127  121 126 127  122 123 128  122 127 128  123 124 129  123 128 129  125 126 131  125 130 131  126 127 132  126 131 132  127 128 133  127 132 133  128 129 134  128 133 134  </DataArray>
<DataArray  type="UInt32"  Name="offsets"  format="ascii">3 6 9 12 15 18 21 24 27 30 33 36 39 42 45 48 51 54 57 60 63 66 69 72 75 78 81 84 87 90 93 96 99 102 105 108 111 114 117 120 123 126 129 132 135 138 141 144 147 150 153 156 159 162 165 168 171 174 177 180 183 186 189 192 195 198 201 204 207 210 213 216 219 222 225 228 231 234 237 240 243 246 249 252 255 258 261 264 267 270 273 276 279 282 285 288 291 294 297 300 303 306 309 312 315 318 321 324 327 330 333 336 339 342 345 348 351 354 357 360 363 366 369 372 375 378 381 384 387 390 393 396 399 402 405 408 411 414 417 420 423 426 429 432 435 438 441 444 447 450 453 456 459 462 465 468 471 474 477 480 483 486 489 492 495 498 501 504 507 510 513 516 519 522 525 528 531 534 537 540 543 546 549 552 555 558 561 564 567 570 573 576 579 582 585 588 591 594 597 600 603 606 609 612 615 618 621 624 </DataArray>
<DataArray  type="UInt8"  Name="types"  format="ascii">5 5 5 5 5 5 5 5 5 5 5 5 5 5 5 5 5 5 5 5 5 5 5 5 5 5 5 5 5 5 5 5 5 5 5 5 5 5 5 5 5 5 5 5 5 5 5 5 5 5 5 5 5 5 5 5 5 5 5 5 5 5 5 5 5 5 5 5 5 5 5 5 5 5 5 5 5 5 5 5 5 5 5 5 5 5 5 5 5 5 5 5 5 5 5 5 5 5 5 5 5 5 5 5 5 5 5 5 5 5 5 5 5 5 5 5 5 5 5 5 5 5 5 5 5 5 5 5 5 5 5 5 5 5 5 5 5 5 5 5 5 5 5 5 5 5 5 5 5 5 5 5 5 5 5 5 5 5 5 5 5 5 5 5 5 5 5 5 5 5 5 5 5 5 5 5 5 5 5 5 5 5 5 5 5 5 5 5 5 5 5 5 5 5 5 5 5 5 5 5 5 5 5 5 5 5 5 5 </DataArray>
</Cells>
<PointData  Vectors="Displacement"> 
<DataArray  type="Float64"  Name="Displacement"  NumberOfComponents="3" format="ascii">-4.3083257066277522e-16 7.7600581748247728e-18 0.0000000000000000e+00  0.0000000000000000e+00 0.0000000000000000e+00 0.0000000000000000e+00  0.0000000000000000e+00 0.0000000000000000e+00 0.0000000000000000e+00  -6.2185428568103210e-17 1.4843978423400801e-18 0.0000000000000000e+00  1.8655628570430963e-16 -4.4531935270202405e-18 0.0000000000000000e+00  5.9364526903955676e-04 9.4938791741241860e-04 0.0000000000000000e+00  3.8779416484019055e-04 4.6519371448651344e-04 0.0000000000000000e+00  3.0926799164652434e-04 9.1597474518281331e-06 0.0000000000000000e+00  3.7164030578126171e-04 -4.4261657304189438e-04 0.0000000000000000e+00  5.7507839220288359e-04 -9.3741209150575132e-04 0.0000000000000000e+00  1.7008696825132153e-03 1.8890964757065447e-03 0.0000000000000000e+00  1.5036304936773886e-03 9.4631823499395629e-04 0.0000000000000000e+00  1.4357670018325856e-03 1.8343849602646238e-05 0.0000000000000000e+00  1.4984955217235846e-03 -9.1054216206434813e-04 0.0000000000000000e+00  1.6897380105789790e-03 -1.8558557171869468e-03 0.0000000000000000e+00  3.5261168190665504e-03 2.8076817069150567e-03 0.0000000000000000e+00  3.3362274680421968e-03 1.4083370139856787e-03 0.0000000000000000e+00  3.2707353204982207e-03 2.6212304549502789e-05 0.0000000000000000e+00  3.3304161986346592e-03 -1.3563330654733829e-03 0.0000000000000000e+00  3.5153404758219149e-03 -2.7558136345396124e-03 0.0000000000000000e+00  6.0416782155169749e-03 3.6946672016491518e-03 0.0000000000000000e+00  5.8580365118253335e-03 1.8554968656092610e-03 0.0000000000000000e+00  5.7945551293577119e-03 3.4780817896926810e-05 0.0000000000000000e+00  5.8515993101105473e-03 -1.7859645335906438e-03 0.0000000000000000e+00  6.0293865279692598e-03 -3.6247199027678190e-03 0.0000000000000000e+00  9.2219674250842171e-03 4.5465054644823998e-03 0.0000000000000000e+00  9.0472399278663709e-03 2.2850277215051497e-03 0.0000000000000000e+00  8.9866358858382948e-03 4.4387202983787385e-05 0.0000000000000000e+00  9.0405940256229212e-03 -2.1967347501670276e-03 0.0000000000000000e+00  9.2102818328330446e-03 -4.4590757967502568e-03 0.0000000000000000e+00  1.3042622625000682e-02 5.3592930231752831e-03 0.0000000000000000e+00  1.2875168343125631e-02 2.6950570061050230e-03 0.0000000000000000e+00  1.2817194830309599e-02 5.3311727693352243e-05 0.0000000000000000e+00  1.2869168963276573e-02 -2.5883855524925820e-03 0.0000000000000000e+00  1.3030876193234545e-02 -5.2527434147369365e-03 0.0000000000000000e+00  1.7466006886181544e-02 6.1291878436536681e-03 0.0000000000000000e+00  1.7309962210392243e-02 3.0828120418052718e-03 0.0000000000000000e+00  1.7255890691752793e-02 6.2550821649431804e-05 0.0000000000000000e+00  1.7303592173883206e-02 -2.9577331250875156e-03 0.0000000000000000e+00  1.7454669487844677e-02 -6.0037924329917501e-03 0.0000000000000000e+00  2.2467784026152154e-02 6.8478045114591267e-03 0.0000000000000000e+00  2.2321991079065927e-02 3.4451780968870259e-03 0.0000000000000000e+00  2.2270764425162678e-02 7.2131504823879007e-05 0.0000000000000000e+00  2.2315014755224259e-02 -3.3009734150511003e-03 0.0000000000000000e+00  2.2455413298613686e-02 -6.7040822989085039e-03 0.0000000000000000e+00  2.7994627257085375e-02 7.5081611908668485e-03 0.0000000000000000e+00  2.7862113260203988e-02 3.7791657547427988e-03 0.0000000000000000e+00  2.7815603724409558e-02 8.1595673457064929e-05 0.0000000000000000e+00  2.7855719119958860e-02 -3.6159697095339859e-03 0.0000000000000000e+00  2.7983047480526817e-02 -7.3447097030389591e-03 0.0000000000000000e+00  3.4001956121286196e-02 8.1040663632392391e-03 0.0000000000000000e+00  3.3882470762824919e-02 4.0821298420709081e-03 0.0000000000000000e+00  3.3839554446294155e-02 9.1514419267308919e-05 0.0000000000000000e+00  3.3875312888725140e-02 -3.8994036314968410e-03 0.0000000000000000e+00  3.3989840710646944e-02 -7.9219600133194328e-03 0.0000000000000000e+00  4.0430199837041617e-02 8.6370013284834471e-03 0.0000000000000000e+00  4.0321561018082021e-02 4.3559366397050809e-03 0.0000000000000000e+00  4.0282467388782855e-02 1.0090823084638823e-04 0.0000000000000000e+00  4.0315208496183044e-02 -4.1540521858037475e-03 0.0000000000000000e+00  4.0418044080903728e-02 -8.4350213344063819e-03 0.0000000000000000e+00  4.7226325179498090e-02 9.1182381666424350e-03 0.0000000000000000e+00  4.7128443838900198e-02 4.6037025123154777e-03 0.0000000000000000e+00  4.7093003729777615e-02 1.1058381801018581e-04 0.0000000000000000e+00  4.7121677831720762e-02 -4.3828111085591854e-03 0.0000000000000000e+00  4.7214358151990245e-02 -8.8975650882459345e-03 0.0000000000000000e+00  5.4366250912419450e-02 9.5599489669842812e-03 0.0000000000000000e+00  5.4274643778154601e-02 4.8306751841783561e-03 0.0000000000000000e+00  5.4241397863142374e-02 1.1982967202175025e-04 0.0000000000000000e+00  5.4268030526754441e-02 -4.5910380853593901e-03 0.0000000000000000e+00  5.4353533129630593e-02 -9.3206399889414621e-03 0.0000000000000000e+00  6.1816740516595241e-02 9.9676870905049484e-03 0.0000000000000000e+00  6.1733852610700732e-02 5.0394308343012116e-03 0.0000000000000000e+00  6.1704004092947157e-02 1.2890650204478032e-04 0.0000000000000000e+00  6.1727572750165348e-02 -4.7817747157390946e-03 0.0000000000000000e+00  6.1805222844637020e-02 -9.7100229850563217e-03 0.0000000000000000e+00  6.9567091480046264e-02 1.0342065043585626e-02 0.0000000000000000e+00  6.9490878971026571e-02 5.2301284365953134e-03 0.0000000000000000e+00  6.9463065420740183e-02 1.3783421560781498e-04 0.0000000000000000e+00  6.9484328610626547e-02 -4.9547371939259992e-03 0.0000000000000000e+00  6.9555257298262327e-02 -1.0067493877061342e-02 0.0000000000000000e+00  7.7586391813970604e-02 1.0678911837199183e-02 0.0000000000000000e+00  7.7519265636789805e-02 5.4015582728033059e-03 0.0000000000000000e+00  7.7494972962031061e-02 1.4598669796358335e-04 0.0000000000000000e+00  7.7513671221426161e-02 -5.1096133631127220e-03 0.0000000000000000e+00  7.7575925730272249e-02 -1.0386827382358110e-02 0.0000000000000000e+00  8.5846741835605991e-02 1.0970639355202519e-02 0.0000000000000000e+00  8.5789695455937051e-02 5.5505471794024116e-03 0.0000000000000000e+00  8.5768382872057083e-02 1.5411992241908294e-04 0.0000000000000000e+00  8.5783739323052027e-02 -5.2425863642511610e-03 0.0000000000000000e+00  8.5836671785893687e-02 -1.0663288498585475e-02 0.0000000000000000e+00  9.4309648803129448e-02 1.1214405135056612e-02 0.0000000000000000e+00  9.4261361469765423e-02 5.6764007896861887e-03 0.0000000000000000e+00  9.4243131993332840e-02 1.6124697883553537e-04 0.0000000000000000e+00  9.4256194110459199e-02 -5.3537646362382613e-03 0.0000000000000000e+00  9.4299998326292017e-02 -1.0891436068392392e-02 0.0000000000000000e+00  1.0292981428309245e-01 1.1411080733126945e-02 0.0000000000000000e+00  1.0289217207786762e-01 5.7790016048572534e-03 0.0000000000000000e+00  1.0287748801078465e-01 1.6826730780401065e-04 0.0000000000000000e+00  1.0288688366849720e-01 -5.4426934729882364e-03 0.0000000000000000e+00  1.0292102463391900e-01 -1.1074898613762943e-02 0.0000000000000000e+00  1.1168154970916966e-01 1.1565722569613645e-02 0.0000000000000000e+00  1.1165092656216144e-01 5.8601986433405948e-03 0.0000000000000000e+00  1.1163856473378182e-01 1.7473296480122641e-04 0.0000000000000000e+00  1.1164594597374028e-01 -5.5109133126432274e-03 0.0000000000000000e+00  1.1167254088402599e-01 -1.1216588283866367e-02 0.0000000000000000e+00  1.2052300131190449e-01 1.1680061529123913e-02 0.0000000000000000e+00  1.2050151521660518e-01 5.9217142645030113e-03 0.0000000000000000e+00  1.2049271630932749e-01 1.8067217536857361e-04 0.0000000000000000e+00  1.2049754045664544e-01 -5.5602960988846784e-03 0.0000000000000000e+00  1.2051567609846132e-01 -1.1318273406540269e-02 0.0000000000000000e+00  1.2943135889507215e-01 1.1758690297158002e-02 0.0000000000000000e+00  1.2941590958093141e-01 5.9651109668899848e-03 0.0000000000000000e+00  1.2940883748460386e-01 1.8613373836301759e-04 0.0000000000000000e+00  1.2941170418410358e-01 -5.5924575264022520e-03 0.0000000000000000e+00  1.2942392801317440e-01 -1.1385236151504656e-02 0.0000000000000000e+00  1.3837537391734894e-01 1.1808571446453885e-02 0.0000000000000000e+00  1.3836452557899528e-01 5.9948068858427577e-03 0.0000000000000000e+00  1.3835895833881121e-01 1.9106801043544618e-04 0.0000000000000000e+00  1.3836030175578101e-01 -5.6123806234268788e-03 0.0000000000000000e+00  1.3836798371901457e-01 -1.1425220562460130e-02 0.0000000000000000e+00  1.4733626310312550e-01 1.1838402424805078e-02 0.0000000000000000e+00  1.4732988354908458e-01 6.0136477746653713e-03 0.0000000000000000e+00  1.4732650147383439e-01 1.9569128643635110e-04 0.0000000000000000e+00  1.4732701531168632e-01 -5.6228477690351587e-03 0.0000000000000000e+00  1.4733119001413944e-01 -1.1448388693970737e-02 0.0000000000000000e+00  1.5631169646222925e-01 1.1855649984484289e-02 0.0000000000000000e+00  1.5630644439930805e-01 6.0240794137292686e-03 0.0000000000000000e+00  1.5630377348814545e-01 1.9804626553031885e-04 0.0000000000000000e+00  1.5630396676821098e-01 -5.6277205772384820e-03 0.0000000000000000e+00  1.5630701012539830e-01 -1.1456724319274506e-02 0.0000000000000000e+00  1.6528385833856304e-01 1.1861034067751394e-02 0.0000000000000000e+00  1.6528133452801974e-01 6.0307802624993733e-03 0.0000000000000000e+00  1.6527808663223034e-01 2.0136570994452185e-04 0.0000000000000000e+00  1.6527689131784326e-01 -5.6273160828282454e-03 0.0000000000000000e+00  1.6527668810383658e-01 -1.1457370584699842e-02 0.0000000000000000e+00  </DataArray> 
</PointData> 
</Piece>
</UnstructuredGrid>
</VTKFile>