<?xml version="1.0"?>
<VTKFile type="UnstructuredGrid"  version="0.1"  >
<UnstructuredGrid>
<Piece  NumberOfPoints="135" NumberOfCells="208">
<Points>
<DataArray  type="Float64"  NumberOfComponents="3"  format="ascii">-0.05 0 0  -0.025 0 0  0 0 0  0.02500000000000001 0 0  0.05 0 0  -0.05 0.03846153846153846 0  -0.025 0.03846153846153846 0  0 0.03846153846153846 0  0.02500000000000001 0.03846153846153846 0  0.05 0.03846153846153846 0  -0.05 0.07692307692307693 0  -0.025 0.07692307692307693 0  0 0.07692307692307693 0  0.02500000000000001 0.07692307692307693 0  0.05 0.07692307692307693 0  -0.05 0.1153846153846154 0  -0.025 0.1153846153846154 0  0 0.1153846153846154 0  0.02500000000000001 0.1153846153846154 0  0.05 0.1153846153846154 0  -0.05 0.1538461538461539 0  -0.025 0.1538461538461539 0  0 0.1538461538461539 0  0.02500000000000001 0.1538461538461539 0  0.05 0.1538461538461539 0  -0.05 0.1923076923076923 0  -0.025 0.1923076923076923 0  0 0.1923076923076923 0  0.02500000000000001 0.1923076923076923 0  0.05 0.1923076923076923 0  -0.05 0.2307692307692308 0  -0.025 0.2307692307692308 0  0 0.2307692307692308 0  0.02500000000000001 0.2307692307692308 0  0.05 0.2307692307692308 0  -0.05 0.2692307692307692 0  -0.025 0.2692307692307692 0  0 0.2692307692307692 0  0.02500000000000001 0.2692307692307692 0  0.05 0.2692307692307692 0  -0.05 0.3076923076923077 0  -0.025 0.3076923076923077 0  0 0.3076923076923077 0  0.02500000000000001 0.3076923076923077 0  0.05 0.3076923076923077 0  -0.05 0.3461538461538461 0  -0.025 0.3461538461538461 0  0 0.3461538461538461 0  0.02500000000000001 0.3461538461538461 0  0.05 0.3461538461538461 0  -0.05 0.3846153846153846 0  -0.025 0.3846153846153846 0  0 0.3846153846153846 0  0.02500000000000001 0.3846153846153846 0  0.05 0.3846153846153846 0  -0.05 0.4230769230769231 0  -0.025 0.4230769230769231 0  0 0.4230769230769231 0  0.02500000000000001 0.4230769230769231 0  0.05 0.4230769230769231 0  -0.05 0.4615384615384616 0  -0.025 0.4615384615384616 0  0 0.4615384615384616 0  0.02500000000000001 0.4615384615384616 0  0.05 0.4615384615384616 0  -0.05 0.5 0  -0.025 0.5 0  0 0.5 0  0.02500000000000001 0.5 0  0.05 0.5 0  -0.05 0.5384615384615384 0  -0.025 0.5384615384615384 0  0 0.5384615384615384 0  0.02500000000000001 0.5384615384615384 0  0.05 0.5384615384615384 0  -0.05 0.5769230769230769 0  -0.025 0.5769230769230769 0  0 0.5769230769230769 0  0.02500000000000001 0.5769230769230769 0  0.05 0.5769230769230769 0  -0.05 0.6153846153846154 0  -0.025 0.6153846153846154 0  0 0.6153846153846154 0  0.02500000000000001 0.6153846153846154 0  0.05 0.6153846153846154 0  -0.05 0.6538461538461539 0  -0.025 0.6538461538461539 0  0 0.6538461538461539 0  0.02500000000000001 0.6538461538461539 0  0.05 0.6538461538461539 0  -0.05 0.6923076923076923 0  -0.025 0.6923076923076923 0  0 0.6923076923076923 0  0.02500000000000001 0.6923076923076923 0  0.05 0.6923076923076923 0  -0.05 0.7307692307692307 0  -0.025 0.7307692307692307 0  0 0.7307692307692307 0  0.02500000000000001 0.7307692307692307 0  0.05 0.7307692307692307 0  -0.05 0.7692307692307693 0  -0.025 0.7692307692307693 0  0 0.7692307692307693 0  0.02500000000000001 0.7692307692307693 0  0.05 0.7692307692307693 0  -0.05 0.8076923076923077 0  -0.025 0.8076923076923077 0  0 0.8076923076923077 0  0.02500000000000001 0.8076923076923077 0  0.05 0.8076923076923077 0  -0.05 0.8461538461538461 0  -0.025 0.8461538461538461 0  0 0.8461538461538461 0  0.02500000000000001 0.8461538461538461 0  0.05 0.8461538461538461 0  -0.05 0.8846153846153846 0  -0.025 0.8846153846153846 0  0 0.8846153846153846 0  0.02500000000000001 0.8846153846153846 0  0.05 0.8846153846153846 0  -0.05 0.9230769230769231 0  -0.025 0.9230769230769231 0  0 0.9230769230769231 0  0.02500000000000001 0.9230769230769231 0  0.05 0.9230769230769231 0  -0.05 0.9615384615384616 0  -0.025 0.9615384615384616 0  0 0.9615384615384616 0  0.02500000000000001 0.9615384615384616 0  0.05 0.9615384615384616 0  -0.05 1 0  -0.025 1 0  0 1 0  0.02500000000000001 1 0  0.05 1 0  </DataArray>
</Points>
<Cells>
<DataArray  type="UInt32"  Name="connectivity"  format="ascii">0 1 6  0 5 6  1 2 7  1 6 7  2 3 8  2 7 8  3 4 9  3 8 9  5 6 11  5 10 11  6 7 12  6 11 12  7 8 13  7 12 13  8 9 14  8 13 14  10 11 16  10 15 16  11 12 17  11 16 17  12 13 18  12 17 18  13 14 19  13 18 19  15 16 21  15 20 21  16 17 22  16 21 22  17 18 23  17 22 23  18 19 24  18 23 24  20 21 26  20 25 26  21 22 27  21 26 27  22 23 28  22 27 28  23 24 29  23 28 29  25 26 31  25 30 31  26 27 32  26 31 32  27 28 33  27 32 33  28 29 34  28 33 34  30 31 36  30 35 36  31 32 37  31 36 37  32 33 38  32 37 38  33 34 39  33 38 39  35 36 41  35 40 41  36 37 42  36 41 42  37 38 43  37 42 43  38 39 44  38 43 44  40 41 46  40 45 46  41 42 47  41 46 47  42 43 48  42 47 48  43 44 49  43 48 49  45 46 51  45 50 51  46 47 52  46 51 52  47 48 53  47 52 53  48 49 54  48 53 54  50 51 56  50 55 56  51 52 57  51 56 57  52 53 58  52 57 58  53 54 59  53 58 59  55 56 61  55 60 61  56 57 62  56 61 62  57 58 63  57 62 63  58 59 64  58 63 64  60 61 66  60 65 66  61 62 67  61 66 67  62 63 68  62 67 68  63 64 69  63 68 69  65 66 71  65 70 71  66 67 72  66 71 72  67 68 73  67 72 73  68 69 74  68 73 74  70 71 76  70 75 76  71 72 77  71 76 77  72 73 78  72 77 78  73 74 79  73 78 79  75 76 81  75 80 81  76 77 82  76 81 82  77 78 83  77 82 83  78 79 84  78 83 84  80 81 86  80 85 86  81 82 87  81 86 87  82 83 88  82 87 88  83 84 89  83 88 89  85 86 91  85 90 91  86 87 92  86 91 92  87 88 93  87 92 93  88 89 94  88 93 94  90 91 96  90 95 96  91 92 97  91 96 97  92 93 98  92 97 98  93 94 99  93 98 99  95 96 101  95 100 101  96 97 102  96 101 102  97 98 103  97 102 103  98 99 104  98 103 104  100 101 106  100 105 106  101 102 107  101 106 107  102 103 108  102 107 108  103 104 109  103 108 109  105 106 111  105 110 111  106 107 112  106 111 112  107 108 113  107 112 113  108 109 114  108 113 114  110 111 116  110 115 116  111 112 117  111 116 117  112 113 118  112 117 118  113 114 119  113 118 119  115 116 121  115 120 121  116 117 122  116 121 122  117 118 123  117 122 123  118 119 124  118 123 124  120 121 126  120 125 126  121 122 127  121 126 127  122 123 128  122 127 128  123 124 129  123 128 129  125 126 131  125 130 131  126 127 132  126 131 132  127 128 133  127 132 133  128 129 134  128 133 134  </DataArray>
<DataArray  type="UInt32"  Name="offsets"  format="ascii">3 6 9 12 15 18 21 24 27 30 33 36 39 42 45 48 51 54 57 60 63 66 69 72 75 78 81 84 87 90 93 96 99 102 105 108 111 114 117 120 123 126 129 132 135 138 141 144 147 150 153 156 159 162 165 168 171 174 177 180 183 186 189 192 195 198 201 204 207 210 213 216 219 222 225 228 231 234 237 240 243 246 249 252 255 258 261 264 267 270 273 276 279 282 285 288 291 294 297 300 303 306 309 312 315 318 321 324 327 330 333 336 339 342 345 348 351 354 357 360 363 366 369 372 375 378 381 384 387 390 393 396 399 402 405 408 411 414 417 420 423 426 429 432 435 438 441 444 447 450 453 456 459 462 465 468 471 474 477 480 483 486 489 492 495 498 501 504 507 510 513 516 519 522 525 528 531 534 537 540 543 546 549 552 555 558 561 564 567 570 573 576 579 582 585 588 591 594 597 600 603 606 609 612 615 618 621 624 </DataArray>
<DataArray  type="UInt8"  Name="types"  format="ascii">5 5 5 5 5 5 5 5 5 5 5 5 5 5 5 5 5 5 5 5 5 5 5 5 5 5 5 5 5 5 5 5 5 5 5 5 5 5 5 5 5 5 5 5 5 5 5 5 5 5 5 5 5 5 5 5 5 5 5 5 5 5 5 5 5 5 5 5 5 5 5 5 5 5 5 5 5 5 5 5 5 5 5 5 5 5 5 5 5 5 5 5 5 5 5 5 5 5 5 5 5 5 5 5 5 5 5 5 5 5 5 5 5 5 5 5 5 5 5 5 5 5 5 5 5 5 5 5 5 5 5 5 5 5 5 5 5 5 5 5 5 5 5 5 5 5 5 5 5 5 5 5 5 5 5 5 5 5 5 5 5 5 5 5 5 5 5 5 5 5 5 5 5 5 5 5 5 5 5 5 5 5 5 5 5 5 5 5 5 5 5 5 5 5 5 5 5 5 5 5 5 5 5 5 5 5 5 5 </DataArray>
</Cells>
<PointData  Vectors="Displacement"> 
<DataArray  type="Float64"  Name="Displacement"  NumberOfComponents="3" format="ascii">-4.5183011292524372e-16 2.1527834342928225e-18 0.0000000000000000e+00  0.0000000000000000e+00 0.0000000000000000e+00 0.0000000000000000e+00  0.0000000000000000e+00 0.0000000000000000e+00 0.0000000000000000e+00  -5.3390740782882886e-17 3.8871268313349510e-19 0.0000000000000000e+00  1.6017222234864867e-16 -1.1661380494004854e-18 0.0000000000000000e+00  -1.7035679630888912e-05 -4.1335706167146849e-05 0.0000000000000000e+00  -9.3750766884410140e-06 -1.9602471925664782e-05 0.0000000000000000e+00  -7.6690488790892482e-06 2.6357805394102558e-06 0.0000000000000000e+00  -1.2382090673406872e-05 2.4828073054801842e-05 0.0000000000000000e+00  -2.2813360565250227e-05 4.7419436543250578e-05 0.0000000000000000e+00  -7.4288900425452668e-05 -8.8185581077095481e-05 0.0000000000000000e+00  -6.5910246070859934e-05 -3.9784141609032169e-05 0.0000000000000000e+00  -6.3979365118172274e-05 5.7447499265807261e-06 0.0000000000000000e+00  -6.7726258013490911e-05 5.0355438979877583e-05 0.0000000000000000e+00  -7.7841335559136713e-05 9.7803873681840645e-05 0.0000000000000000e+00  -1.7240382884897576e-04 -1.2977371483625721e-04 0.0000000000000000e+00  -1.6656335014407286e-04 -5.7457078912391536e-05 0.0000000000000000e+00  -1.6560022273435907e-04 8.0747496230185958e-06 0.0000000000000000e+00  -1.6889248707739274e-04 7.2835418377423285e-05 0.0000000000000000e+00  -1.7747503175081269e-04 1.4500465749830863e-04 0.0000000000000000e+00  -3.1071035116884499e-04 -1.5787683428042504e-04 0.0000000000000000e+00  -3.0900516727317480e-04 -6.7624119787443096e-05 0.0000000000000000e+00  -3.0904206359033795e-04 1.0581706000931069e-05 0.0000000000000000e+00  -3.1077384646569943e-04 8.8387521611375477e-05 0.0000000000000000e+00  -3.1505327954104275e-04 1.7775527981626582e-04 0.0000000000000000e+00  -4.7078426575604144e-04 -1.6189907410586588e-04 0.0000000000000000e+00  -4.7313035297957519e-04 -6.7754851117915311e-05 0.0000000000000000e+00  -4.7386298308312627e-04 1.2915874464728728e-05 0.0000000000000000e+00  -4.7418655416891164e-04 9.3291096698196839e-05 0.0000000000000000e+00  -4.7404011869930029e-04 1.8728357649727399e-04 0.0000000000000000e+00  -6.2598428451253625e-04 -1.3848880695205469e-04 0.0000000000000000e+00  -6.3516974433476504e-04 -5.5048093785707254e-05 0.0000000000000000e+00  -6.3815607034448747e-04 1.4759899284078509e-05 0.0000000000000000e+00  -6.3607134896667098e-04 8.5100410143115496e-05 0.0000000000000000e+00  -6.2939113244766035e-04 1.6880742778476308e-04 0.0000000000000000e+00  -7.5417069184751111e-04 -8.7543575839402622e-05 0.0000000000000000e+00  -7.6702236223060263e-04 -3.0105974334960427e-05 0.0000000000000000e+00  -7.7123585253230560e-04 1.6293453842568190e-05 0.0000000000000000e+00  -7.6848214341857261e-04 6.2233668265707946e-05 0.0000000000000000e+00  -7.5692395811057726e-04 1.2010071076389932e-04 0.0000000000000000e+00  -8.2407222471367965e-04 -1.3612592768288816e-05 0.0000000000000000e+00  -8.4181934888169854e-04 5.8852124508632664e-06 0.0000000000000000e+00  -8.4772637222771234e-04 1.7745596714704901e-05 0.0000000000000000e+00  -8.4322536047530333e-04 2.9351793018480700e-05 0.0000000000000000e+00  -8.2720149358233989e-04 4.7414627122396836e-05 0.0000000000000000e+00  -8.2664513775266386e-04 7.5110128010942074e-05 0.0000000000000000e+00  -8.4515009981077653e-04 4.7730439962008257e-05 0.0000000000000000e+00  -8.5017571802178807e-04 1.8235988724181098e-05 0.0000000000000000e+00  -8.4422969541894665e-04 -1.2052192325643227e-05 0.0000000000000000e+00  -8.2608629140974352e-04 -3.9875432543289929e-05 0.0000000000000000e+00  -7.4499919794884925e-04 1.6819735918512514e-04 0.0000000000000000e+00  -7.6381104401693754e-04 9.2038218847097686e-05 0.0000000000000000e+00  -7.6984907548075573e-04 1.8542774771091013e-05 0.0000000000000000e+00  -7.6458966996331950e-04 -5.5084290124594206e-05 0.0000000000000000e+00  -7.4671347177587301e-04 -1.3078028275085525e-04 0.0000000000000000e+00  -5.8829591388258123e-04 2.5556827213497603e-04 0.0000000000000000e+00  -6.0617214535125911e-04 1.3515478592064498e-04 0.0000000000000000e+00  -6.1184192521899963e-04 1.9342681884958067e-05 0.0000000000000000e+00  -6.0638240100315780e-04 -9.6423654757371769e-05 0.0000000000000000e+00  -5.8929599943929889e-04 -2.1718036228457387e-04 0.0000000000000000e+00  -3.6656256220460749e-04 3.3352022493486031e-04 0.0000000000000000e+00  -3.8119900374887803e-04 1.7329428858641743e-04 0.0000000000000000e+00  -3.8553310615693114e-04 1.9410231618726191e-05 0.0000000000000000e+00  -3.8066075352144007e-04 -1.3461918731395327e-04 0.0000000000000000e+00  -3.6585288290466188e-04 -2.9445701141167941e-04 0.0000000000000000e+00  -8.4053395514053844e-05 4.0024609022572494e-04 0.0000000000000000e+00  -9.8057138596930929e-05 2.0653876955304310e-04 0.0000000000000000e+00  -1.0287250738719533e-04 1.9039170420958333e-05 0.0000000000000000e+00  -9.8754918732812778e-05 -1.6775958745733543e-04 0.0000000000000000e+00  -8.5660827775434599e-05 -3.6035855539949866e-04 0.0000000000000000e+00  2.4076304729210341e-04 4.5438600059694685e-04 0.0000000000000000e+00  2.3099070234153826e-04 2.3378013226052710e-04 0.0000000000000000e+00  2.2793216620840256e-04 1.9521912243236163e-05 0.0000000000000000e+00  2.3087597093263793e-04 -1.9524455832759817e-04 0.0000000000000000e+00  2.4086610701832062e-04 -4.1621885522781987e-04 0.0000000000000000e+00  6.0698494368423262e-04 4.9639984785905577e-04 0.0000000000000000e+00  5.9875545648240100e-04 2.5468360282407274e-04 0.0000000000000000e+00  5.9636307805843464e-04 1.9530544462685265e-05 0.0000000000000000e+00  5.9902744507253603e-04 -2.1562671197227284e-04 0.0000000000000000e+00  6.0665834706565762e-04 -4.5725442906791459e-04 0.0000000000000000e+00  9.9718439203953769e-04 5.2589662654105676e-04 0.0000000000000000e+00  9.9166572268090370e-04 2.6986464088206403e-04 0.0000000000000000e+00  9.9016330787714789e-04 1.9766343632251780e-05 0.0000000000000000e+00  9.9207029649071485e-04 -2.3018350128874303e-04 0.0000000000000000e+00  9.9715831073397452e-04 -4.8500461465274155e-04 0.0000000000000000e+00  1.4040492066401081e-03 5.4434343351863178e-04 0.0000000000000000e+00  1.4005161104441598e-03 2.8023240925398844e-04 0.0000000000000000e+00  1.3990987217156171e-03 2.0698119311837385e-05 0.0000000000000000e+00  1.3996082773802315e-03 -2.3859447931462408e-04 0.0000000000000000e+00  1.4022338458143768e-03 -5.0153213641690063e-04 0.0000000000000000e+00  1.8177539038059566e-03 5.5431027326737273e-04 0.0000000000000000e+00  1.8144805188852443e-03 2.8696524914332232e-04 0.0000000000000000e+00  1.8130502694030290e-03 2.1853718629410542e-05 0.0000000000000000e+00  1.8132054820920761e-03 -2.4270517211411627e-04 0.0000000000000000e+00  1.8147726561543805e-03 -5.0881017284312496e-04 0.0000000000000000e+00  2.2288057096287077e-03 5.6055468364633746e-04 0.0000000000000000e+00  2.2271071199805922e-03 2.9156592697075214e-04 0.0000000000000000e+00  2.2264303094982163e-03 2.3245081783981594e-05 0.0000000000000000e+00  2.2263569147178909e-03 -2.4481153897215515e-04 0.0000000000000000e+00  2.2270575466977181e-03 -5.1290180246962836e-04 0.0000000000000000e+00  2.6458113328696247e-03 5.6876640538526774e-04 0.0000000000000000e+00  2.6420340720887448e-03 2.9688133496229171e-04 0.0000000000000000e+00  2.6403390687437787e-03 2.4788633043146593e-05 0.0000000000000000e+00  2.6401487020090964e-03 -2.4658760438393476e-04 0.0000000000000000e+00  2.6416994856284311e-03 -5.1657049306585881e-04 0.0000000000000000e+00  3.0631484834209638e-03 5.7941593619240139e-04 0.0000000000000000e+00  3.0601214875500024e-03 3.0339745884688026e-04 0.0000000000000000e+00  3.0591510287412333e-03 2.7086432660591854e-05 0.0000000000000000e+00  3.0590707174427884e-03 -2.4907115052387929e-04 0.0000000000000000e+00  3.0607436910656950e-03 -5.2495192947192538e-04 0.0000000000000000e+00  3.4920791473863799e-03 5.9415469784680297e-04 0.0000000000000000e+00  3.4882563991937383e-03 3.1087996547056386e-04 0.0000000000000000e+00  3.4873379095154210e-03 2.8477714760685045e-05 0.0000000000000000e+00  3.4882506583953248e-03 -2.5314410672185825e-04 0.0000000000000000e+00  3.4909955754988940e-03 -5.3430439275266414e-04 0.0000000000000000e+00  3.9331572209755552e-03 6.0737534246150377e-04 0.0000000000000000e+00  3.9296348259066551e-03 3.1758898112836740e-04 0.0000000000000000e+00  3.9282941612397634e-03 2.9647898058765264e-05 0.0000000000000000e+00  3.9285008236585412e-03 -2.5690779928301376e-04 0.0000000000000000e+00  3.9304912608851784e-03 -5.4372314949450290e-04 0.0000000000000000e+00  4.3811094429334774e-03 6.1591469775231389e-04 0.0000000000000000e+00  4.3788496421650553e-03 3.2293550395067736e-04 0.0000000000000000e+00  4.3778154653946596e-03 3.1744222196899016e-05 0.0000000000000000e+00  4.3771018999531220e-03 -2.5883663292650957e-04 0.0000000000000000e+00  4.3780605469854409e-03 -5.5051139675689822e-04 0.0000000000000000e+00  4.8372706258433262e-03 6.2289113761570061e-04 0.0000000000000000e+00  4.8335644650874445e-03 3.2640048513289964e-04 0.0000000000000000e+00  4.8323810294291294e-03 3.3485275966383299e-05 0.0000000000000000e+00  4.8321760907877606e-03 -2.5930611576903054e-04 0.0000000000000000e+00  4.8342746696084550e-03 -5.5248852827245677e-04 0.0000000000000000e+00  5.2905806505328919e-03 6.2542075987567563e-04 0.0000000000000000e+00  5.2888418617772614e-03 3.2965614579033852e-04 0.0000000000000000e+00  5.2875718738905255e-03 3.5842011227590574e-05 0.0000000000000000e+00  5.2872570981632606e-03 -2.5818393363502556e-04 0.0000000000000000e+00  5.2870950057435822e-03 -5.5339213900825314e-04 0.0000000000000000e+00  </DataArray> 
</PointData> 
</Piece>
</UnstructuredGrid>
</VTKFile>