<?xml version="1.0"?>
<VTKFile type="UnstructuredGrid"  version="0.1"  >
<UnstructuredGrid>
<Piece  NumberOfPoints="135" NumberOfCells="208">
<Points>
<DataArray  type="Float64"  NumberOfComponents="3"  format="ascii">-0.05 0 0  -0.025 0 0  0 0 0  0.02500000000000001 0 0  0.05 0 0  -0.05 0.03846153846153846 0  -0.025 0.03846153846153846 0  0 0.03846153846153846 0  0.02500000000000001 0.03846153846153846 0  0.05 0.03846153846153846 0  -0.05 0.07692307692307693 0  -0.025 0.07692307692307693 0  0 0.07692307692307693 0  0.02500000000000001 0.07692307692307693 0  0.05 0.07692307692307693 0  -0.05 0.1153846153846154 0  -0.025 0.1153846153846154 0  0 0.1153846153846154 0  0.02500000000000001 0.1153846153846154 0  0.05 0.1153846153846154 0  -0.05 0.1538461538461539 0  -0.025 0.1538461538461539 0  0 0.1538461538461539 0  0.02500000000000001 0.1538461538461539 0  0.05 0.1538461538461539 0  -0.05 0.1923076923076923 0  -0.025 0.1923076923076923 0  0 0.1923076923076923 0  0.02500000000000001 0.1923076923076923 0  0.05 0.1923076923076923 0  -0.05 0.2307692307692308 0  -0.025 0.2307692307692308 0  0 0.2307692307692308 0  0.02500000000000001 0.2307692307692308 0  0.05 0.2307692307692308 0  -0.05 0.2692307692307692 0  -0.025 0.2692307692307692 0  0 0.2692307692307692 0  0.02500000000000001 0.2692307692307692 0  0.05 0.2692307692307692 0  -0.05 0.3076923076923077 0  -0.025 0.3076923076923077 0  0 0.3076923076923077 0  0.02500000000000001 0.3076923076923077 0  0.05 0.3076923076923077 0  -0.05 0.3461538461538461 0  -0.025 0.3461538461538461 0  0 0.3461538461538461 0  0.02500000000000001 0.3461538461538461 0  0.05 0.3461538461538461 0  -0.05 0.3846153846153846 0  -0.025 0.3846153846153846 0  0 0.3846153846153846 0  0.02500000000000001 0.3846153846153846 0  0.05 0.3846153846153846 0  -0.05 0.4230769230769231 0  -0.025 0.4230769230769231 0  0 0.4230769230769231 0  0.02500000000000001 0.4230769230769231 0  0.05 0.4230769230769231 0  -0.05 0.4615384615384616 0  -0.025 0.4615384615384616 0  0 0.4615384615384616 0  0.02500000000000001 0.4615384615384616 0  0.05 0.4615384615384616 0  -0.05 0.5 0  -0.025 0.5 0  0 0.5 0  0.02500000000000001 0.5 0  0.05 0.5 0  -0.05 0.5384615384615384 0  -0.025 0.5384615384615384 0  0 0.5384615384615384 0  0.02500000000000001 0.5384615384615384 0  0.05 0.5384615384615384 0  -0.05 0.5769230769230769 0  -0.025 0.5769230769230769 0  0 0.5769230769230769 0  0.02500000000000001 0.5769230769230769 0  0.05 0.5769230769230769 0  -0.05 0.6153846153846154 0  -0.025 0.6153846153846154 0  0 0.6153846153846154 0  0.02500000000000001 0.6153846153846154 0  0.05 0.6153846153846154 0  -0.05 0.6538461538461539 0  -0.025 0.6538461538461539 0  0 0.6538461538461539 0  0.02500000000000001 0.6538461538461539 0  0.05 0.6538461538461539 0  -0.05 0.6923076923076923 0  -0.025 0.6923076923076923 0  0 0.6923076923076923 0  0.02500000000000001 0.6923076923076923 0  0.05 0.6923076923076923 0  -0.05 0.7307692307692307 0  -0.025 0.7307692307692307 0  0 0.7307692307692307 0  0.02500000000000001 0.7307692307692307 0  0.05 0.7307692307692307 0  -0.05 0.7692307692307693 0  -0.025 0.7692307692307693 0  0 0.7692307692307693 0  0.02500000000000001 0.7692307692307693 0  0.05 0.7692307692307693 0  -0.05 0.8076923076923077 0  -0.025 0.8076923076923077 0  0 0.8076923076923077 0  0.02500000000000001 0.8076923076923077 0  0.05 0.8076923076923077 0  -0.05 0.8461538461538461 0  -0.025 0.8461538461538461 0  0 0.8461538461538461 0  0.02500000000000001 0.8461538461538461 0  0.05 0.8461538461538461 0  -0.05 0.8846153846153846 0  -0.025 0.8846153846153846 0  0 0.8846153846153846 0  0.02500000000000001 0.8846153846153846 0  0.05 0.8846153846153846 0  -0.05 0.9230769230769231 0  -0.025 0.9230769230769231 0  0 0.9230769230769231 0  0.02500000000000001 0.9230769230769231 0  0.05 0.9230769230769231 0  -0.05 0.9615384615384616 0  -0.025 0.9615384615384616 0  0 0.9615384615384616 0  0.02500000000000001 0.9615384615384616 0  0.05 0.9615384615384616 0  -0.05 1 0  -0.025 1 0  0 1 0  0.02500000000000001 1 0  0.05 1 0  </DataArray>
</Points>
<Cells>
<DataArray  type="UInt32"  Name="connectivity"  format="ascii">0 1 6  0 5 6  1 2 7  1 6 7  2 3 8  2 7 8  3 4 9  3 8 9  5 6 11  5 10 11  6 7 12  6 11 12  7 8 13  7 12 13  8 9 14  8 13 14  10 11 16  10 15 16  11 12 17  11 16 17  12 13 18  12 17 18  13 14 19  13 18 19  15 16 21  15 20 21  16 17 22  16 21 22  17 18 23  17 22 23  18 19 24  18 23 24  20 21 26  20 25 26  21 22 27  21 26 27  22 23 28  22 27 28  23 24 29  23 28 29  25 26 31  25 30 31  26 27 32  26 31 32  27 28 33  27 32 33  28 29 34  28 33 34  30 31 36  30 35 36  31 32 37  31 36 37  32 33 38  32 37 38  33 34 39  33 38 39  35 36 41  35 40 41  36 37 42  36 41 42  37 38 43  37 42 43  38 39 44  38 43 44  40 41 46  40 45 46  41 42 47  41 46 47  42 43 48  42 47 48  43 44 49  43 48 49  45 46 51  45 50 51  46 47 52  46 51 52  47 48 53  47 52 53  48 49 54  48 53 54  50 51 56  50 55 56  51 52 57  51 56 57  52 53 58  52 57 58  53 54 59  53 58 59  55 56 61  55 60 61  56 57 62  56 61 62  57 58 63  57 62 63  58 59 64  58 63 64  60 61 66  60 65 66  61 62 67  61 66 67  62 63 68  62 67 68  63 64 69  63 68 69  65 66 71  65 70 71  66 67 72  66 71 72  67 68 73  67 72 73  68 69 74  68 73 74  70 71 76  70 75 76  71 72 77  71 76 77  72 73 78  72 77 78  73 74 79  73 78 79  75 76 81  75 80 81  76 77 82  76 81 82  77 78 83  77 82 83  78 79 84  78 83 84  80 81 86  80 85 86  81 82 87  81 86 87  82 83 88  82 87 88  83 84 89  83 88 89  85 86 91  85 90 91  86 87 92  86 91 92  87 88 93  87 92 93  88 89 94  88 93 94  90 91 96  90 95 96  91 92 97  91 96 97  92 93 98  92 97 98  93 94 99  93 98 99  95 96 101  95 100 101  96 97 102  96 101 102  97 98 103  97 102 103  98 99 104  98 103 104  100 101 106  100 105 106  101 102 107  101 106 107  102 103 108  102 107 108  103 104 109  103 108 109  105 106 111  105 110 111  106 107 112  106 111 112  107 108 113  107 112 113  108 109 114  108 113 114  110 111 116  110 115 116  111 112 117  111 116 117  112 113 118  112 117 118  113 114 119  113 118 119  115 116 121  115 120 121  116 117 122  116 121 122  117 118 123  117 122 123  118 119 124  118 123 124  120 121 126  120 125 126  121 122 127  121 126 127  122 123 128  122 127 128  123 124 129  123 128 129  125 126 131  125 130 131  126 127 132  126 131 132  127 128 133  127 132 133  128 129 134  128 133 134  </DataArray>
<DataArray  type="UInt32"  Name="offsets"  format="ascii">3 6 9 12 15 18 21 24 27 30 33 36 39 42 45 48 51 54 57 60 63 66 69 72 75 78 81 84 87 90 93 96 99 102 105 108 111 114 117 120 123 126 129 132 135 138 141 144 147 150 153 156 159 162 165 168 171 174 177 180 183 186 189 192 195 198 201 204 207 210 213 216 219 222 225 228 231 234 237 240 243 246 249 252 255 258 261 264 267 270 273 276 279 282 285 288 291 294 297 300 303 306 309 312 315 318 321 324 327 330 333 336 339 342 345 348 351 354 357 360 363 366 369 372 375 378 381 384 387 390 393 396 399 402 405 408 411 414 417 420 423 426 429 432 435 438 441 444 447 450 453 456 459 462 465 468 471 474 477 480 483 486 489 492 495 498 501 504 507 510 513 516 519 522 525 528 531 534 537 540 543 546 549 552 555 558 561 564 567 570 573 576 579 582 585 588 591 594 597 600 603 606 609 612 615 618 621 624 </DataArray>
<DataArray  type="UInt8"  Name="types"  format="ascii">5 5 5 5 5 5 5 5 5 5 5 5 5 5 5 5 5 5 5 5 5 5 5 5 5 5 5 5 5 5 5 5 5 5 5 5 5 5 5 5 5 5 5 5 5 5 5 5 5 5 5 5 5 5 5 5 5 5 5 5 5 5 5 5 5 5 5 5 5 5 5 5 5 5 5 5 5 5 5 5 5 5 5 5 5 5 5 5 5 5 5 5 5 5 5 5 5 5 5 5 5 5 5 5 5 5 5 5 5 5 5 5 5 5 5 5 5 5 5 5 5 5 5 5 5 5 5 5 5 5 5 5 5 5 5 5 5 5 5 5 5 5 5 5 5 5 5 5 5 5 5 5 5 5 5 5 5 5 5 5 5 5 5 5 5 5 5 5 5 5 5 5 5 5 5 5 5 5 5 5 5 5 5 5 5 5 5 5 5 5 5 5 5 5 5 5 5 5 5 5 5 5 5 5 5 5 5 5 </DataArray>
</Cells>
<PointData  Vectors="Displacement"> 
<DataArray  type="Float64"  Name="Displacement"  NumberOfComponents="3" format="ascii">-4.5415966302041768e-16 1.9089930362268755e-18 0.0000000000000000e+00  0.0000000000000000e+00 0.0000000000000000e+00 0.0000000000000000e+00  0.0000000000000000e+00 0.0000000000000000e+00 0.0000000000000000e+00  -5.4211356354119643e-17 5.7080073353933185e-19 0.0000000000000000e+00  1.6263406906235894e-16 -1.7124022006179956e-18 0.0000000000000000e+00  -1.4988349557140830e-05 9.7459899560882642e-06 0.0000000000000000e+00  -2.2474485935709455e-05 1.1421944213606331e-05 0.0000000000000000e+00  -2.5378074015084246e-05 4.1728829468957713e-06 0.0000000000000000e+00  -2.4826634765838561e-05 -2.9884462952075611e-06 0.0000000000000000e+00  -2.1895924047402383e-05 2.3179299411441130e-07 0.0000000000000000e+00  -2.1763041588388266e-05 4.4439954047540573e-05 0.0000000000000000e+00  -3.2532527215442459e-05 3.0804658546439452e-05 0.0000000000000000e+00  -3.7205098748637265e-05 8.1255310163623287e-06 0.0000000000000000e+00  -3.5804803211719959e-05 -1.3005205596093068e-05 0.0000000000000000e+00  -2.9232042869697434e-05 -2.4868195997444142e-05 0.0000000000000000e+00  4.5711809136065070e-06 9.8443067399643042e-05 0.0000000000000000e+00  -9.9980398167510923e-06 6.0459324805085576e-05 0.0000000000000000e+00  -1.6594664454195597e-05 1.3148877323560913e-05 0.0000000000000000e+00  -1.4825075053326877e-05 -3.3183749149065974e-05 0.0000000000000000e+00  -4.6618071720104576e-06 -7.0312465630615364e-05 0.0000000000000000e+00  7.8078089853763353e-05 1.6964173464242664e-04 0.0000000000000000e+00  6.0741533224514361e-05 9.7163104568004732e-05 0.0000000000000000e+00  5.4152081165715986e-05 1.8326218752675042e-05 0.0000000000000000e+00  5.7018058950606483e-05 -6.0400723238498303e-05 0.0000000000000000e+00  7.0249798451624734e-05 -1.3327758406108612e-04 0.0000000000000000e+00  2.1384016480081590e-04 2.5290984732153710e-04 0.0000000000000000e+00  1.9563449083823066e-04 1.3907731552440224e-04 0.0000000000000000e+00  1.8894862565434323e-04 2.2406267570746682e-05 0.0000000000000000e+00  1.9262249032089138e-04 -9.3879504734401803e-05 0.0000000000000000e+00  2.0779538886948540e-04 -2.0739714623461660e-04 0.0000000000000000e+00  4.2132984562507622e-04 3.4052796956051692e-04 0.0000000000000000e+00  4.0144127962349026e-04 1.8361496077262860e-04 0.0000000000000000e+00  3.9355834218054558e-04 2.7111264610913027e-05 0.0000000000000000e+00  3.9725097502804358e-04 -1.2959631655536980e-04 0.0000000000000000e+00  4.1307668414654141e-04 -2.8554584731318696e-04 0.0000000000000000e+00  6.9217029492877778e-04 4.2685730461060572e-04 0.0000000000000000e+00  6.7388358946974690e-04 2.2941878023470584e-04 0.0000000000000000e+00  6.6662373379604680e-04 3.1894911547141951e-05 0.0000000000000000e+00  6.7072194531189744e-04 -1.6496367057742311e-04 0.0000000000000000e+00  6.8584554970521714e-04 -3.6299020934631084e-04 0.0000000000000000e+00  1.0298982070672529e-03 5.1237264392002492e-04 0.0000000000000000e+00  1.0103716632585285e-03 2.7406210469744011e-04 0.0000000000000000e+00  1.0026027253591024e-03 3.6232189593738104e-05 0.0000000000000000e+00  1.0065386924298263e-03 -2.0091619119558035e-04 0.0000000000000000e+00  1.0217848781455567e-03 -4.3742788805810670e-04 0.0000000000000000e+00  1.4243864856586194e-03 5.9540152057245674e-04 0.0000000000000000e+00  1.4062113609659606e-03 3.1792760448610827e-04 0.0000000000000000e+00  1.3987956072268552e-03 4.0879018615054864e-05 0.0000000000000000e+00  1.4017871921989794e-03 -2.3531557122865917e-04 0.0000000000000000e+00  1.4162582812338436e-03 -5.1177691772560669e-04 0.0000000000000000e+00  1.8807733667754961e-03 6.7769588746914577e-04 0.0000000000000000e+00  1.8618295477896411e-03 3.6192872589063408e-04 0.0000000000000000e+00  1.8534036057722850e-03 4.5819588660490520e-05 0.0000000000000000e+00  1.8568525342388873e-03 -2.7015787761133412e-04 0.0000000000000000e+00  1.8717875408576423e-03 -5.8603366957075585e-04 0.0000000000000000e+00  2.3952790517469732e-03 7.6208316279011276e-04 0.0000000000000000e+00  2.3752991025818566e-03 4.0693085298476524e-04 0.0000000000000000e+00  2.3674723331758578e-03 5.0572106849425103e-05 0.0000000000000000e+00  2.3710677817662825e-03 -3.0562153755669805e-04 0.0000000000000000e+00  2.3862945940812002e-03 -6.5983413297552381e-04 0.0000000000000000e+00  2.9706296488598615e-03 8.5096866692116284e-04 0.0000000000000000e+00  2.9511193711736065e-03 4.5381514938912790e-04 0.0000000000000000e+00  2.9427951871878210e-03 5.6142926812530387e-05 0.0000000000000000e+00  2.9459413502784201e-03 -3.4109824242413791e-04 0.0000000000000000e+00  2.9613637396521302e-03 -7.3820668097139921e-04 0.0000000000000000e+00  3.6173995084062818e-03 9.4310620473743185e-04 0.0000000000000000e+00  3.5961538390207061e-03 5.0191171388730481e-04 0.0000000000000000e+00  3.5878428145675310e-03 6.2473723664911832e-05 0.0000000000000000e+00  3.5913464376675034e-03 -3.7725460437720116e-04 0.0000000000000000e+00  3.6071100776086176e-03 -8.1792036801217377e-04 0.0000000000000000e+00  4.3302965090047446e-03 1.0341481766026747e-03 0.0000000000000000e+00  4.3117845205397761e-03 5.4906509779918233e-04 0.0000000000000000e+00  4.3044537490405481e-03 6.8290056145767016e-05 0.0000000000000000e+00  4.3075109934807591e-03 -4.1152622380781685e-04 0.0000000000000000e+00  4.3220096388246572e-03 -8.9618755310105454e-04 0.0000000000000000e+00  5.1176332016392937e-03 1.1184676787815487e-03 0.0000000000000000e+00  5.0998678310864133e-03 5.9244077882233688e-04 0.0000000000000000e+00  5.0919102073291736e-03 7.4714143709320624e-05 0.0000000000000000e+00  5.0938483881127197e-03 -4.4292972421385566e-04 0.0000000000000000e+00  5.1066113658239463e-03 -9.6750405954665602e-04 0.0000000000000000e+00  5.9609717414225863e-03 1.1865612959699940e-03 0.0000000000000000e+00  5.9473041065465108e-03 6.2977374879975259e-04 0.0000000000000000e+00  5.9409004562908105e-03 8.1733872205593121e-05 0.0000000000000000e+00  5.9417688907925656e-03 -4.6644669182841495e-04 0.0000000000000000e+00  5.9508102206627311e-03 -1.0234500197054768e-03 0.0000000000000000e+00  6.8461791360694031e-03 1.2358617219444654e-03 0.0000000000000000e+00  6.8366701815318317e-03 6.5777467963424295e-04 0.0000000000000000e+00  6.8312894065789510e-03 8.8233592636592666e-05 0.0000000000000000e+00  6.8310249434415738e-03 -4.8170513056740549e-04 0.0000000000000000e+00  6.8362514873015427e-03 -1.0602205872372640e-03 0.0000000000000000e+00  7.7560733876162677e-03 1.2668613276505512e-03 0.0000000000000000e+00  7.7486863806998122e-03 6.7722924658028408e-04 0.0000000000000000e+00  7.7445868924386841e-03 9.4973136937256212e-05 0.0000000000000000e+00  7.7435778501113812e-03 -4.8821459674040541e-04 0.0000000000000000e+00  7.7457669705625360e-03 -1.0778830996924728e-03 0.0000000000000000e+00  8.6714428129653614e-03 1.2839934249553296e-03 0.0000000000000000e+00  8.6680871126778233e-03 6.9023753986300598e-04 0.0000000000000000e+00  8.6653510511755863e-03 1.0129001983362701e-04 0.0000000000000000e+00  8.6639588909764413e-03 -4.8783662818079992e-04 0.0000000000000000e+00  8.6634983267945519e-03 -1.0822224741341066e-03 0.0000000000000000e+00  9.5925029781919816e-03 1.2914986882010145e-03 0.0000000000000000e+00  9.5891596615110958e-03 6.9749587601034219e-04 0.0000000000000000e+00  9.5866260358459052e-03 1.0701052462812405e-04 0.0000000000000000e+00  9.5848947260152636e-03 -4.8342878963599255e-04 0.0000000000000000e+00  9.5833617529890568e-03 -1.0762938780765066e-03 0.0000000000000000e+00  1.0502613547498763e-02 1.2912214895768723e-03 0.0000000000000000e+00  1.0501784786963526e-02 7.0116100528679255e-04 0.0000000000000000e+00  1.0499913429893717e-02 1.1214411340720587e-04 0.0000000000000000e+00  1.0497603603692169e-02 -4.7635145510209053e-04 0.0000000000000000e+00  1.0495165089799434e-02 -1.0656287487784391e-03 0.0000000000000000e+00  1.1408463777863035e-02 1.2889244654845449e-03 0.0000000000000000e+00  1.1407124737004297e-02 7.0229151153427464e-04 0.0000000000000000e+00  1.1405304834981454e-02 1.1663799034008392e-04 0.0000000000000000e+00  1.1403180720129641e-02 -4.6899750099952986e-04 0.0000000000000000e+00  1.1400797928334138e-02 -1.0549180095011127e-03 0.0000000000000000e+00  1.2305360733030977e-02 1.2863829696848818e-03 0.0000000000000000e+00  1.2303433309498990e-02 7.0362725107449254e-04 0.0000000000000000e+00  1.2301721268130134e-02 1.2064519582797179e-04 0.0000000000000000e+00  1.2300381205556921e-02 -4.6262317983606548e-04 0.0000000000000000e+00  1.2299424964452495e-02 -1.0446067266822096e-03 0.0000000000000000e+00  1.3195733010902622e-02 1.2874253082850444e-03 0.0000000000000000e+00  1.3194230577564718e-02 7.0578113242483937e-04 0.0000000000000000e+00  1.3193073048001949e-02 1.2404572242627544e-04 0.0000000000000000e+00  1.3192094260360167e-02 -4.5777006850983184e-04 0.0000000000000000e+00  1.3191263394757412e-02 -1.0393710796496839e-03 0.0000000000000000e+00  1.4092001892030857e-02 1.2927508378037850e-03 0.0000000000000000e+00  1.4087724966430029e-02 7.0902338558348911e-04 0.0000000000000000e+00  1.4086104455814114e-02 1.2644045391744049e-04 0.0000000000000000e+00  1.4086077981350082e-02 -4.5533927886814095e-04 0.0000000000000000e+00  1.4087759147026218e-02 -1.0362707406275935e-03 0.0000000000000000e+00  1.4984569180295138e-02 1.2959655021201608e-03 0.0000000000000000e+00  1.4983535526637165e-02 7.1291065006032553e-04 0.0000000000000000e+00  1.4982169489699187e-02 1.2932034075790059e-04 0.0000000000000000e+00  1.4981077622263165e-02 -4.5296536723172116e-04 0.0000000000000000e+00  1.4980322963540014e-02 -1.0352894869730532e-03 0.0000000000000000e+00  </DataArray> 
</PointData> 
</Piece>
</UnstructuredGrid>
</VTKFile>