<?xml version="1.0"?>
<VTKFile type="UnstructuredGrid"  version="0.1"  >
<UnstructuredGrid>
<Piece  NumberOfPoints="135" NumberOfCells="208">
<Points>
<DataArray  type="Float64"  NumberOfComponents="3"  format="ascii">-0.05 0 0  -0.025 0 0  0 0 0  0.02500000000000001 0 0  0.05 0 0  -0.05 0.03846153846153846 0  -0.025 0.03846153846153846 0  0 0.03846153846153846 0  0.02500000000000001 0.03846153846153846 0  0.05 0.03846153846153846 0  -0.05 0.07692307692307693 0  -0.025 0.07692307692307693 0  0 0.07692307692307693 0  0.02500000000000001 0.07692307692307693 0  0.05 0.07692307692307693 0  -0.05 0.1153846153846154 0  -0.025 0.1153846153846154 0  0 0.1153846153846154 0  0.02500000000000001 0.1153846153846154 0  0.05 0.1153846153846154 0  -0.05 0.1538461538461539 0  -0.025 0.1538461538461539 0  0 0.1538461538461539 0  0.02500000000000001 0.1538461538461539 0  0.05 0.1538461538461539 0  -0.05 0.1923076923076923 0  -0.025 0.1923076923076923 0  0 0.1923076923076923 0  0.02500000000000001 0.1923076923076923 0  0.05 0.1923076923076923 0  -0.05 0.2307692307692308 0  -0.025 0.2307692307692308 0  0 0.2307692307692308 0  0.02500000000000001 0.2307692307692308 0  0.05 0.2307692307692308 0  -0.05 0.2692307692307692 0  -0.025 0.2692307692307692 0  0 0.2692307692307692 0  0.02500000000000001 0.2692307692307692 0  0.05 0.2692307692307692 0  -0.05 0.3076923076923077 0  -0.025 0.3076923076923077 0  0 0.3076923076923077 0  0.02500000000000001 0.3076923076923077 0  0.05 0.3076923076923077 0  -0.05 0.3461538461538461 0  -0.025 0.3461538461538461 0  0 0.3461538461538461 0  0.02500000000000001 0.3461538461538461 0  0.05 0.3461538461538461 0  -0.05 0.3846153846153846 0  -0.025 0.3846153846153846 0  0 0.3846153846153846 0  0.02500000000000001 0.3846153846153846 0  0.05 0.3846153846153846 0  -0.05 0.4230769230769231 0  -0.025 0.4230769230769231 0  0 0.4230769230769231 0  0.02500000000000001 0.4230769230769231 0  0.05 0.4230769230769231 0  -0.05 0.4615384615384616 0  -0.025 0.4615384615384616 0  0 0.4615384615384616 0  0.02500000000000001 0.4615384615384616 0  0.05 0.4615384615384616 0  -0.05 0.5 0  -0.025 0.5 0  0 0.5 0  0.02500000000000001 0.5 0  0.05 0.5 0  -0.05 0.5384615384615384 0  -0.025 0.5384615384615384 0  0 0.5384615384615384 0  0.02500000000000001 0.5384615384615384 0  0.05 0.5384615384615384 0  -0.05 0.5769230769230769 0  -0.025 0.5769230769230769 0  0 0.5769230769230769 0  0.02500000000000001 0.5769230769230769 0  0.05 0.5769230769230769 0  -0.05 0.6153846153846154 0  -0.025 0.6153846153846154 0  0 0.6153846153846154 0  0.02500000000000001 0.6153846153846154 0  0.05 0.6153846153846154 0  -0.05 0.6538461538461539 0  -0.025 0.6538461538461539 0  0 0.6538461538461539 0  0.02500000000000001 0.6538461538461539 0  0.05 0.6538461538461539 0  -0.05 0.6923076923076923 0  -0.025 0.6923076923076923 0  0 0.6923076923076923 0  0.02500000000000001 0.6923076923076923 0  0.05 0.6923076923076923 0  -0.05 0.7307692307692307 0  -0.025 0.7307692307692307 0  0 0.7307692307692307 0  0.02500000000000001 0.7307692307692307 0  0.05 0.7307692307692307 0  -0.05 0.7692307692307693 0  -0.025 0.7692307692307693 0  0 0.7692307692307693 0  0.02500000000000001 0.7692307692307693 0  0.05 0.7692307692307693 0  -0.05 0.8076923076923077 0  -0.025 0.8076923076923077 0  0 0.8076923076923077 0  0.02500000000000001 0.8076923076923077 0  0.05 0.8076923076923077 0  -0.05 0.8461538461538461 0  -0.025 0.8461538461538461 0  0 0.8461538461538461 0  0.02500000000000001 0.8461538461538461 0  0.05 0.8461538461538461 0  -0.05 0.8846153846153846 0  -0.025 0.8846153846153846 0  0 0.8846153846153846 0  0.02500000000000001 0.8846153846153846 0  0.05 0.8846153846153846 0  -0.05 0.9230769230769231 0  -0.025 0.9230769230769231 0  0 0.9230769230769231 0  0.02500000000000001 0.9230769230769231 0  0.05 0.9230769230769231 0  -0.05 0.9615384615384616 0  -0.025 0.9615384615384616 0  0 0.9615384615384616 0  0.02500000000000001 0.9615384615384616 0  0.05 0.9615384615384616 0  -0.05 1 0  -0.025 1 0  0 1 0  0.02500000000000001 1 0  0.05 1 0  </DataArray>
</Points>
<Cells>
<DataArray  type="UInt32"  Name="connectivity"  format="ascii">0 1 6  0 5 6  1 2 7  1 6 7  2 3 8  2 7 8  3 4 9  3 8 9  5 6 11  5 10 11  6 7 12  6 11 12  7 8 13  7 12 13  8 9 14  8 13 14  10 11 16  10 15 16  11 12 17  11 16 17  12 13 18  12 17 18  13 14 19  13 18 19  15 16 21  15 20 21  16 17 22  16 21 22  17 18 23  17 22 23  18 19 24  18 23 24  20 21 26  20 25 26  21 22 27  21 26 27  22 23 28  22 27 28  23 24 29  23 28 29  25 26 31  25 30 31  26 27 32  26 31 32  27 28 33  27 32 33  28 29 34  28 33 34  30 31 36  30 35 36  31 32 37  31 36 37  32 33 38  32 37 38  33 34 39  33 38 39  35 36 41  35 40 41  36 37 42  36 41 42  37 38 43  37 42 43  38 39 44  38 43 44  40 41 46  40 45 46  41 42 47  41 46 47  42 43 48  42 47 48  43 44 49  43 48 49  45 46 51  45 50 51  46 47 52  46 51 52  47 48 53  47 52 53  48 49 54  48 53 54  50 51 56  50 55 56  51 52 57  51 56 57  52 53 58  52 57 58  53 54 59  53 58 59  55 56 61  55 60 61  56 57 62  56 61 62  57 58 63  57 62 63  58 59 64  58 63 64  60 61 66  60 65 66  61 62 67  61 66 67  62 63 68  62 67 68  63 64 69  63 68 69  65 66 71  65 70 71  66 67 72  66 71 72  67 68 73  67 72 73  68 69 74  68 73 74  70 71 76  70 75 76  71 72 77  71 76 77  72 73 78  72 77 78  73 74 79  73 78 79  75 76 81  75 80 81  76 77 82  76 81 82  77 78 83  77 82 83  78 79 84  78 83 84  80 81 86  80 85 86  81 82 87  81 86 87  82 83 88  82 87 88  83 84 89  83 88 89  85 86 91  85 90 91  86 87 92  86 91 92  87 88 93  87 92 93  88 89 94  88 93 94  90 91 96  90 95 96  91 92 97  91 96 97  92 93 98  92 97 98  93 94 99  93 98 99  95 96 101  95 100 101  96 97 102  96 101 102  97 98 103  97 102 103  98 99 104  98 103 104  100 101 106  100 105 106  101 102 107  101 106 107  102 103 108  102 107 108  103 104 109  103 108 109  105 106 111  105 110 111  106 107 112  106 111 112  107 108 113  107 112 113  108 109 114  108 113 114  110 111 116  110 115 116  111 112 117  111 116 117  112 113 118  112 117 118  113 114 119  113 118 119  115 116 121  115 120 121  116 117 122  116 121 122  117 118 123  117 122 123  118 119 124  118 123 124  120 121 126  120 125 126  121 122 127  121 126 127  122 123 128  122 127 128  123 124 129  123 128 129  125 126 131  125 130 131  126 127 132  126 131 132  127 128 133  127 132 133  128 129 134  128 133 134  </DataArray>
<DataArray  type="UInt32"  Name="offsets"  format="ascii">3 6 9 12 15 18 21 24 27 30 33 36 39 42 45 48 51 54 57 60 63 66 69 72 75 78 81 84 87 90 93 96 99 102 105 108 111 114 117 120 123 126 129 132 135 138 141 144 147 150 153 156 159 162 165 168 171 174 177 180 183 186 189 192 195 198 201 204 207 210 213 216 219 222 225 228 231 234 237 240 243 246 249 252 255 258 261 264 267 270 273 276 279 282 285 288 291 294 297 300 303 306 309 312 315 318 321 324 327 330 333 336 339 342 345 348 351 354 357 360 363 366 369 372 375 378 381 384 387 390 393 396 399 402 405 408 411 414 417 420 423 426 429 432 435 438 441 444 447 450 453 456 459 462 465 468 471 474 477 480 483 486 489 492 495 498 501 504 507 510 513 516 519 522 525 528 531 534 537 540 543 546 549 552 555 558 561 564 567 570 573 576 579 582 585 588 591 594 597 600 603 606 609 612 615 618 621 624 </DataArray>
<DataArray  type="UInt8"  Name="types"  format="ascii">5 5 5 5 5 5 5 5 5 5 5 5 5 5 5 5 5 5 5 5 5 5 5 5 5 5 5 5 5 5 5 5 5 5 5 5 5 5 5 5 5 5 5 5 5 5 5 5 5 5 5 5 5 5 5 5 5 5 5 5 5 5 5 5 5 5 5 5 5 5 5 5 5 5 5 5 5 5 5 5 5 5 5 5 5 5 5 5 5 5 5 5 5 5 5 5 5 5 5 5 5 5 5 5 5 5 5 5 5 5 5 5 5 5 5 5 5 5 5 5 5 5 5 5 5 5 5 5 5 5 5 5 5 5 5 5 5 5 5 5 5 5 5 5 5 5 5 5 5 5 5 5 5 5 5 5 5 5 5 5 5 5 5 5 5 5 5 5 5 5 5 5 5 5 5 5 5 5 5 5 5 5 5 5 5 5 5 5 5 5 5 5 5 5 5 5 5 5 5 5 5 5 5 5 5 5 5 5 </DataArray>
</Cells>
<PointData  Vectors="Displacement"> 
<DataArray  type="Float64"  Name="Displacement"  NumberOfComponents="3" format="ascii">-4.6090852712759287e-16 9.9983381482136969e-18 0.0000000000000000e+00  0.0000000000000000e+00 0.0000000000000000e+00 0.0000000000000000e+00  0.0000000000000000e+00 0.0000000000000000e+00 0.0000000000000000e+00  -5.8408598745907269e-17 1.6255291182597295e-18 0.0000000000000000e+00  1.7522579623772183e-16 -4.8765873547791890e-18 0.0000000000000000e+00  7.8321979639416333e-04 1.1718488046416863e-03 0.0000000000000000e+00  5.3900154651438810e-04 5.5990924042787892e-04 0.0000000000000000e+00  4.4766891409513929e-04 4.5054257117798648e-06 0.0000000000000000e+00  5.2294647502464835e-04 -5.4628180117943684e-04 0.0000000000000000e+00  7.7043478780932197e-04 -1.1726501472162354e-03 0.0000000000000000e+00  2.1877629195752504e-03 2.2757960934303373e-03 0.0000000000000000e+00  1.9619077349805748e-03 1.1214335764968531e-03 0.0000000000000000e+00  1.8853182692363780e-03 7.5991235324441384e-06 0.0000000000000000e+00  1.9605964314385518e-03 -1.1073999065218350e-03 0.0000000000000000e+00  2.1844335623942921e-03 -2.2656629464677057e-03 0.0000000000000000e+00  4.4143474239622896e-03 3.3108407409085092e-03 0.0000000000000000e+00  4.2056266896329910e-03 1.6409548605049896e-03 0.0000000000000000e+00  4.1351293966984080e-03 9.0641708483523705e-06 0.0000000000000000e+00  4.2041090391307465e-03 -1.6227537472492347e-03 0.0000000000000000e+00  4.4116606073427971e-03 -3.2924103585810962e-03 0.0000000000000000e+00  7.4016027197781531e-03 4.2714741422248438e-03 0.0000000000000000e+00  7.2067123448212164e-03 2.1241119455749470e-03 0.0000000000000000e+00  7.1405824411049741e-03 1.1507240075171811e-05 0.0000000000000000e+00  7.2042382178011078e-03 -2.1006438300844154e-03 0.0000000000000000e+00  7.3976790069740827e-03 -4.2471711381995248e-03 0.0000000000000000e+00  1.1090256481114136e-02 5.1660962928870499e-03 0.0000000000000000e+00  1.0909589954247055e-02 2.5750025268098317e-03 0.0000000000000000e+00  1.0848002739989909e-02 1.4787655289663205e-05 0.0000000000000000e+00  1.0906391651573241e-02 -2.5456349484957721e-03 0.0000000000000000e+00  1.1086270077470360e-02 -5.1375912530966612e-03 0.0000000000000000e+00  1.5439165991219417e-02 6.0013583753198577e-03 0.0000000000000000e+00  1.5269750593940633e-02 2.9945062541914987e-03 0.0000000000000000e+00  1.5212806397981546e-02 1.7238002010358842e-05 0.0000000000000000e+00  1.5268701918181766e-02 -2.9602193627526452e-03 0.0000000000000000e+00  1.5437127828770030e-02 -5.9679342300512370e-03 0.0000000000000000e+00  2.0402080467801724e-02 6.7791905438111021e-03 0.0000000000000000e+00  2.0245893088584876e-02 3.3848122961322212e-03 0.0000000000000000e+00  2.0192912049752085e-02 1.9339892131090088e-05 0.0000000000000000e+00  2.0243783962915478e-02 -3.3461692604769273e-03 0.0000000000000000e+00  2.0398911283357631e-02 -6.7400986479357848e-03 0.0000000000000000e+00  2.5941117629293142e-02 7.5003947582907233e-03 0.0000000000000000e+00  2.5794965950699033e-02 3.7476777470482059e-03 0.0000000000000000e+00  2.5745159047026359e-02 2.2220847886276811e-05 0.0000000000000000e+00  2.5792049116116163e-02 -3.7032041846000608e-03 0.0000000000000000e+00  2.5936547244121779e-02 -7.4566552179497194e-03 0.0000000000000000e+00  3.2004554932277635e-02 8.1678083655551265e-03 0.0000000000000000e+00  3.1870043032579586e-02 4.0835819691905396e-03 0.0000000000000000e+00  3.1824468666375824e-02 2.4471096643394730e-05 0.0000000000000000e+00  3.1868704395457137e-02 -4.0349719881030326e-03 0.0000000000000000e+00  3.2002778565589259e-02 -8.1199879521552214e-03 0.0000000000000000e+00  3.8557261161324269e-02 8.7871794396272972e-03 0.0000000000000000e+00  3.8431139433011477e-02 4.3957726672676899e-03 0.0000000000000000e+00  3.8387676809345822e-02 2.5623251081057128e-05 0.0000000000000000e+00  3.8428481203938790e-02 -4.3446207391980565e-03 0.0000000000000000e+00  3.8553428224129910e-02 -8.7355061214746555e-03 0.0000000000000000e+00  4.5561357975637470e-02 9.3660641124826312e-03 0.0000000000000000e+00  4.5442635713576256e-02 4.6879454698625662e-03 0.0000000000000000e+00  4.5402138982392828e-02 2.7514957186067134e-05 0.0000000000000000e+00  4.5440086150879591e-02 -4.6331356001062937e-03 0.0000000000000000e+00  4.5557098921841566e-02 -9.3125717548111862e-03 0.0000000000000000e+00  5.2989980968512103e-02 9.9125492495206451e-03 0.0000000000000000e+00  5.2879531154834201e-02 4.9618254200175464e-03 0.0000000000000000e+00  5.2842409738440205e-02 2.8489351478261908e-05 0.0000000000000000e+00  5.2878675229868111e-02 -4.9049232522716483e-03 0.0000000000000000e+00  5.2988825130861686e-02 -9.8564279277702609e-03 0.0000000000000000e+00  6.0832698175712741e-02 1.0427826037233754e-02 0.0000000000000000e+00  6.0727859244570449e-02 5.2188174831919393e-03 0.0000000000000000e+00  6.0692696373238188e-02 2.9414070609567333e-05 0.0000000000000000e+00  6.0726038357330168e-02 -5.1596277288939564e-03 0.0000000000000000e+00  6.0829166821741817e-02 -1.0367631309141456e-02 0.0000000000000000e+00  6.9057391701084922e-02 1.0907250098275742e-02 0.0000000000000000e+00  6.8961926654414724e-02 5.4583693761559677e-03 0.0000000000000000e+00  6.8929231354943429e-02 3.1480619083350241e-05 0.0000000000000000e+00  6.8959328016618818e-02 -5.3950841634927225e-03 0.0000000000000000e+00  6.9053952368573562e-02 -1.0843986674761370e-02 0.0000000000000000e+00  7.7642922050785393e-02 1.1346688098946260e-02 0.0000000000000000e+00  7.7555511696696000e-02 5.6777323793827071e-03 0.0000000000000000e+00  7.7525840227018444e-02 3.3711469048697184e-05 0.0000000000000000e+00  7.7553304334106579e-02 -5.6104113473580903e-03 0.0000000000000000e+00  7.7639381055417428e-02 -1.1279895584251957e-02 0.0000000000000000e+00  8.6551196141360004e-02 1.1737468392428414e-02 0.0000000000000000e+00  8.6475385542684011e-02 5.8726947271476194e-03 0.0000000000000000e+00  8.6449341294783807e-02 3.5531582051581035e-05 0.0000000000000000e+00  8.6473068664762315e-02 -5.8012781278906642e-03 0.0000000000000000e+00  8.6547784777630879e-02 -1.1665053449483135e-02 0.0000000000000000e+00  9.5740372551121430e-02 1.2072599164616858e-02 0.0000000000000000e+00  9.5675537446090003e-02 6.0418201667458357e-03 0.0000000000000000e+00  9.5652343337381845e-02 3.8411082270919869e-05 0.0000000000000000e+00  9.5671800305830959e-02 -5.9649811982049510e-03 0.0000000000000000e+00  9.5735173342506100e-02 -1.1995976901241660e-02 0.0000000000000000e+00  1.0516277293667764e-01 1.2352911473652967e-02 0.0000000000000000e+00  1.0510881419184565e-01 6.1840393902656389e-03 0.0000000000000000e+00  1.0509004484282211e-01 4.1609367093976223e-05 0.0000000000000000e+00  1.0510639028422877e-01 -6.1014466625895474e-03 0.0000000000000000e+00  1.0515881533498111e-01 -1.2271490710209389e-02 0.0000000000000000e+00  1.1477355430021974e-01 1.2580593766006246e-02 0.0000000000000000e+00  1.1473113477043315e-01 6.2996272347397081e-03 0.0000000000000000e+00  1.1471612689444252e-01 4.3741314082059162e-05 0.0000000000000000e+00  1.1472952717174888e-01 -6.2118672065246770e-03 0.0000000000000000e+00  1.1477092207066711e-01 -1.2492069068751995e-02 0.0000000000000000e+00  1.2453813110159846e-01 1.2759311816604328e-02 0.0000000000000000e+00  1.2450377892678845e-01 6.3917393357507740e-03 0.0000000000000000e+00  1.2449088615195132e-01 4.6757316054572941e-05 0.0000000000000000e+00  1.2450001197356241e-01 -6.2978784878498723e-03 0.0000000000000000e+00  1.2453207025409321e-01 -1.2664533931435766e-02 0.0000000000000000e+00  1.3440882191631512e-01 1.2892362069248760e-02 0.0000000000000000e+00  1.3438474094051164e-01 6.4615083245959217e-03 0.0000000000000000e+00  1.3437600296745913e-01 4.9771023749897131e-05 0.0000000000000000e+00  1.3438316230848002e-01 -6.3614930747744047e-03 0.0000000000000000e+00  1.3440630180984781e-01 -1.2792471522744289e-02 0.0000000000000000e+00  1.4436317810063345e-01 1.2989113354550967e-02 0.0000000000000000e+00  1.4434500704410708e-01 6.5118882596826039e-03 0.0000000000000000e+00  1.4433783912304907e-01 5.2035699753261824e-05 0.0000000000000000e+00  1.4434258092279581e-01 -6.4069649106403941e-03 0.0000000000000000e+00  1.4435899032379623e-01 -1.2882328835302494e-02 0.0000000000000000e+00  1.5437011874440917e-01 1.3052466577372735e-02 0.0000000000000000e+00  1.5435809774654932e-01 6.5468615254322422e-03 0.0000000000000000e+00  1.5435213668601352e-01 5.5388102263544657e-05 0.0000000000000000e+00  1.5435393484509716e-01 -6.4361472752307138e-03 0.0000000000000000e+00  1.5436390047812995e-01 -1.2940713668951104e-02 0.0000000000000000e+00  1.6440464331018514e-01 1.3087918140624216e-02 0.0000000000000000e+00  1.6439792180273441e-01 6.5683160971980953e-03 0.0000000000000000e+00  1.6439454084682281e-01 5.8779012914938217e-05 0.0000000000000000e+00  1.6439568545420999e-01 -6.4515494883783733e-03 0.0000000000000000e+00  1.6440075271918192e-01 -1.2972445874181237e-02 0.0000000000000000e+00  1.7445199350295870e-01 1.3105013401226356e-02 0.0000000000000000e+00  1.7444688746874579e-01 6.5793656802876840e-03 0.0000000000000000e+00  1.7444484195150792e-01 6.0414110635693323e-05 0.0000000000000000e+00  1.7444535142488657e-01 -6.4584894509881648e-03 0.0000000000000000e+00  1.7444865468217369e-01 -1.2982310549694750e-02 0.0000000000000000e+00  1.8449344766210973e-01 1.3109722380491736e-02 0.0000000000000000e+00  1.8449126210720684e-01 6.5852498132484612e-03 0.0000000000000000e+00  1.8448902594705452e-01 6.3164052851945023e-05 0.0000000000000000e+00  1.8448876562280522e-01 -6.4584327745599666e-03 0.0000000000000000e+00  1.8448896105053617e-01 -1.2983338541654722e-02 0.0000000000000000e+00  </DataArray> 
</PointData> 
</Piece>
</UnstructuredGrid>
</VTKFile>