<?xml version="1.0"?>
<VTKFile type="UnstructuredGrid"  version="0.1"  >
<UnstructuredGrid>
<Piece  NumberOfPoints="135" NumberOfCells="208">
<Points>
<DataArray  type="Float64"  NumberOfComponents="3"  format="ascii">-0.05 0 0  -0.025 0 0  0 0 0  0.02500000000000001 0 0  0.05 0 0  -0.05 0.03846153846153846 0  -0.025 0.03846153846153846 0  0 0.03846153846153846 0  0.02500000000000001 0.03846153846153846 0  0.05 0.03846153846153846 0  -0.05 0.07692307692307693 0  -0.025 0.07692307692307693 0  0 0.07692307692307693 0  0.02500000000000001 0.07692307692307693 0  0.05 0.07692307692307693 0  -0.05 0.1153846153846154 0  -0.025 0.1153846153846154 0  0 0.1153846153846154 0  0.02500000000000001 0.1153846153846154 0  0.05 0.1153846153846154 0  -0.05 0.1538461538461539 0  -0.025 0.1538461538461539 0  0 0.1538461538461539 0  0.02500000000000001 0.1538461538461539 0  0.05 0.1538461538461539 0  -0.05 0.1923076923076923 0  -0.025 0.1923076923076923 0  0 0.1923076923076923 0  0.02500000000000001 0.1923076923076923 0  0.05 0.1923076923076923 0  -0.05 0.2307692307692308 0  -0.025 0.2307692307692308 0  0 0.2307692307692308 0  0.02500000000000001 0.2307692307692308 0  0.05 0.2307692307692308 0  -0.05 0.2692307692307692 0  -0.025 0.2692307692307692 0  0 0.2692307692307692 0  0.02500000000000001 0.2692307692307692 0  0.05 0.2692307692307692 0  -0.05 0.3076923076923077 0  -0.025 0.3076923076923077 0  0 0.3076923076923077 0  0.02500000000000001 0.3076923076923077 0  0.05 0.3076923076923077 0  -0.05 0.3461538461538461 0  -0.025 0.3461538461538461 0  0 0.3461538461538461 0  0.02500000000000001 0.3461538461538461 0  0.05 0.3461538461538461 0  -0.05 0.3846153846153846 0  -0.025 0.3846153846153846 0  0 0.3846153846153846 0  0.02500000000000001 0.3846153846153846 0  0.05 0.3846153846153846 0  -0.05 0.4230769230769231 0  -0.025 0.4230769230769231 0  0 0.4230769230769231 0  0.02500000000000001 0.4230769230769231 0  0.05 0.4230769230769231 0  -0.05 0.4615384615384616 0  -0.025 0.4615384615384616 0  0 0.4615384615384616 0  0.02500000000000001 0.4615384615384616 0  0.05 0.4615384615384616 0  -0.05 0.5 0  -0.025 0.5 0  0 0.5 0  0.02500000000000001 0.5 0  0.05 0.5 0  -0.05 0.5384615384615384 0  -0.025 0.5384615384615384 0  0 0.5384615384615384 0  0.02500000000000001 0.5384615384615384 0  0.05 0.5384615384615384 0  -0.05 0.5769230769230769 0  -0.025 0.5769230769230769 0  0 0.5769230769230769 0  0.02500000000000001 0.5769230769230769 0  0.05 0.5769230769230769 0  -0.05 0.6153846153846154 0  -0.025 0.6153846153846154 0  0 0.6153846153846154 0  0.02500000000000001 0.6153846153846154 0  0.05 0.6153846153846154 0  -0.05 0.6538461538461539 0  -0.025 0.6538461538461539 0  0 0.6538461538461539 0  0.02500000000000001 0.6538461538461539 0  0.05 0.6538461538461539 0  -0.05 0.6923076923076923 0  -0.025 0.6923076923076923 0  0 0.6923076923076923 0  0.02500000000000001 0.6923076923076923 0  0.05 0.6923076923076923 0  -0.05 0.7307692307692307 0  -0.025 0.7307692307692307 0  0 0.7307692307692307 0  0.02500000000000001 0.7307692307692307 0  0.05 0.7307692307692307 0  -0.05 0.7692307692307693 0  -0.025 0.7692307692307693 0  0 0.7692307692307693 0  0.02500000000000001 0.7692307692307693 0  0.05 0.7692307692307693 0  -0.05 0.8076923076923077 0  -0.025 0.8076923076923077 0  0 0.8076923076923077 0  0.02500000000000001 0.8076923076923077 0  0.05 0.8076923076923077 0  -0.05 0.8461538461538461 0  -0.025 0.8461538461538461 0  0 0.8461538461538461 0  0.02500000000000001 0.8461538461538461 0  0.05 0.8461538461538461 0  -0.05 0.8846153846153846 0  -0.025 0.8846153846153846 0  0 0.8846153846153846 0  0.02500000000000001 0.8846153846153846 0  0.05 0.8846153846153846 0  -0.05 0.9230769230769231 0  -0.025 0.9230769230769231 0  0 0.9230769230769231 0  0.02500000000000001 0.9230769230769231 0  0.05 0.9230769230769231 0  -0.05 0.9615384615384616 0  -0.025 0.9615384615384616 0  0 0.9615384615384616 0  0.02500000000000001 0.9615384615384616 0  0.05 0.9615384615384616 0  -0.05 1 0  -0.025 1 0  0 1 0  0.02500000000000001 1 0  0.05 1 0  </DataArray>
</Points>
<Cells>
<DataArray  type="UInt32"  Name="connectivity"  format="ascii">0 1 6  0 5 6  1 2 7  1 6 7  2 3 8  2 7 8  3 4 9  3 8 9  5 6 11  5 10 11  6 7 12  6 11 12  7 8 13  7 12 13  8 9 14  8 13 14  10 11 16  10 15 16  11 12 17  11 16 17  12 13 18  12 17 18  13 14 19  13 18 19  15 16 21  15 20 21  16 17 22  16 21 22  17 18 23  17 22 23  18 19 24  18 23 24  20 21 26  20 25 26  21 22 27  21 26 27  22 23 28  22 27 28  23 24 29  23 28 29  25 26 31  25 30 31  26 27 32  26 31 32  27 28 33  27 32 33  28 29 34  28 33 34  30 31 36  30 35 36  31 32 37  31 36 37  32 33 38  32 37 38  33 34 39  33 38 39  35 36 41  35 40 41  36 37 42  36 41 42  37 38 43  37 42 43  38 39 44  38 43 44  40 41 46  40 45 46  41 42 47  41 46 47  42 43 48  42 47 48  43 44 49  43 48 49  45 46 51  45 50 51  46 47 52  46 51 52  47 48 53  47 52 53  48 49 54  48 53 54  50 51 56  50 55 56  51 52 57  51 56 57  52 53 58  52 57 58  53 54 59  53 58 59  55 56 61  55 60 61  56 57 62  56 61 62  57 58 63  57 62 63  58 59 64  58 63 64  60 61 66  60 65 66  61 62 67  61 66 67  62 63 68  62 67 68  63 64 69  63 68 69  65 66 71  65 70 71  66 67 72  66 71 72  67 68 73  67 72 73  68 69 74  68 73 74  70 71 76  70 75 76  71 72 77  71 76 77  72 73 78  72 77 78  73 74 79  73 78 79  75 76 81  75 80 81  76 77 82  76 81 82  77 78 83  77 82 83  78 79 84  78 83 84  80 81 86  80 85 86  81 82 87  81 86 87  82 83 88  82 87 88  83 84 89  83 88 89  85 86 91  85 90 91  86 87 92  86 91 92  87 88 93  87 92 93  88 89 94  88 93 94  90 91 96  90 95 96  91 92 97  91 96 97  92 93 98  92 97 98  93 94 99  93 98 99  95 96 101  95 100 101  96 97 102  96 101 102  97 98 103  97 102 103  98 99 104  98 103 104  100 101 106  100 105 106  101 102 107  101 106 107  102 103 108  102 107 108  103 104 109  103 108 109  105 106 111  105 110 111  106 107 112  106 111 112  107 108 113  107 112 113  108 109 114  108 113 114  110 111 116  110 115 116  111 112 117  111 116 117  112 113 118  112 117 118  113 114 119  113 118 119  115 116 121  115 120 121  116 117 122  116 121 122  117 118 123  117 122 123  118 119 124  118 123 124  120 121 126  120 125 126  121 122 127  121 126 127  122 123 128  122 127 128  123 124 129  123 128 129  125 126 131  125 130 131  126 127 132  126 131 132  127 128 133  127 132 133  128 129 134  128 133 134  </DataArray>
<DataArray  type="UInt32"  Name="offsets"  format="ascii">3 6 9 12 15 18 21 24 27 30 33 36 39 42 45 48 51 54 57 60 63 66 69 72 75 78 81 84 87 90 93 96 99 102 105 108 111 114 117 120 123 126 129 132 135 138 141 144 147 150 153 156 159 162 165 168 171 174 177 180 183 186 189 192 195 198 201 204 207 210 213 216 219 222 225 228 231 234 237 240 243 246 249 252 255 258 261 264 267 270 273 276 279 282 285 288 291 294 297 300 303 306 309 312 315 318 321 324 327 330 333 336 339 342 345 348 351 354 357 360 363 366 369 372 375 378 381 384 387 390 393 396 399 402 405 408 411 414 417 420 423 426 429 432 435 438 441 444 447 450 453 456 459 462 465 468 471 474 477 480 483 486 489 492 495 498 501 504 507 510 513 516 519 522 525 528 531 534 537 540 543 546 549 552 555 558 561 564 567 570 573 576 579 582 585 588 591 594 597 600 603 606 609 612 615 618 621 624 </DataArray>
<DataArray  type="UInt8"  Name="types"  format="ascii">5 5 5 5 5 5 5 5 5 5 5 5 5 5 5 5 5 5 5 5 5 5 5 5 5 5 5 5 5 5 5 5 5 5 5 5 5 5 5 5 5 5 5 5 5 5 5 5 5 5 5 5 5 5 5 5 5 5 5 5 5 5 5 5 5 5 5 5 5 5 5 5 5 5 5 5 5 5 5 5 5 5 5 5 5 5 5 5 5 5 5 5 5 5 5 5 5 5 5 5 5 5 5 5 5 5 5 5 5 5 5 5 5 5 5 5 5 5 5 5 5 5 5 5 5 5 5 5 5 5 5 5 5 5 5 5 5 5 5 5 5 5 5 5 5 5 5 5 5 5 5 5 5 5 5 5 5 5 5 5 5 5 5 5 5 5 5 5 5 5 5 5 5 5 5 5 5 5 5 5 5 5 5 5 5 5 5 5 5 5 5 5 5 5 5 5 5 5 5 5 5 5 5 5 5 5 5 5 </DataArray>
</Cells>
<PointData  Vectors="Displacement"> 
<DataArray  type="Float64"  Name="Displacement"  NumberOfComponents="3" format="ascii">-4.7837925693605441e-16 7.7726894877056428e-18 0.0000000000000000e+00  0.0000000000000000e+00 0.0000000000000000e+00 0.0000000000000000e+00  0.0000000000000000e+00 0.0000000000000000e+00 0.0000000000000000e+00  -5.8033926771530463e-17 1.1887135000623643e-18 0.0000000000000000e+00  1.7410178031459140e-16 -3.5661405001870934e-18 0.0000000000000000e+00  5.2583889828150283e-04 7.5988433292223899e-04 0.0000000000000000e+00  3.6972965897418138e-04 3.5657369258769369e-04 0.0000000000000000e+00  3.1288189434780267e-04 -2.9150587821460467e-06 0.0000000000000000e+00  3.6266275601483659e-04 -3.5886810047875762e-04 0.0000000000000000e+00  5.2396923544139880e-04 -7.7177079325172306e-04 0.0000000000000000e+00  1.4550116166702014e-03 1.4577346486419492e-03 0.0000000000000000e+00  1.3138523826528384e-03 7.0744367341672666e-04 0.0000000000000000e+00  1.2671388179239114e-03 -7.2836100394460151e-06 0.0000000000000000e+00  1.3153852623334294e-03 -7.2207302012513295e-04 0.0000000000000000e+00  1.4583452752368409e-03 -1.4724745941706201e-03 0.0000000000000000e+00  2.9006878684292702e-03 2.0920610854561596e-03 0.0000000000000000e+00  2.7742934218035332e-03 1.0230313851007236e-03 0.0000000000000000e+00  2.7328000171560575e-03 -1.1625784118148055e-05 0.0000000000000000e+00  2.7759232337356112e-03 -1.0460287594021302e-03 0.0000000000000000e+00  2.9046887366549977e-03 -2.1140417634147521e-03 0.0000000000000000e+00  4.8088734688336238e-03 2.6595319438945512e-03 0.0000000000000000e+00  4.6953299509024417e-03 1.3061046121938908e-03 0.0000000000000000e+00  4.6578099916290191e-03 -1.5965273327355714e-05 0.0000000000000000e+00  4.6962679733548833e-03 -1.3373250897496412e-03 0.0000000000000000e+00  4.8115865246711421e-03 -2.6890293941734256e-03 0.0000000000000000e+00  7.1241958649718622e-03 3.1660130909007002e-03 0.0000000000000000e+00  7.0230272788275863e-03 1.5590556834925845e-03 0.0000000000000000e+00  6.9891297944797105e-03 -1.9497793242008401e-05 0.0000000000000000e+00  7.0231787409455286e-03 -1.5978586766997945e-03 0.0000000000000000e+00  7.1263090225646307e-03 -3.2030035083537344e-03 0.0000000000000000e+00  9.8055159431434721e-03 3.6188750897438696e-03 0.0000000000000000e+00  9.7132619819326749e-03 1.7866991914627485e-03 0.0000000000000000e+00  9.6826811380846221e-03 -2.2104768202179841e-05 0.0000000000000000e+00  9.7135567617006157e-03 -1.8306224517553736e-03 0.0000000000000000e+00  9.8062186772864633e-03 -3.6627781562093829e-03 0.0000000000000000e+00  1.2806886867386571e-02 4.0278331371595127e-03 0.0000000000000000e+00  1.2724177811581312e-02 1.9917004425272829e-03 0.0000000000000000e+00  1.2696742892635287e-02 -2.4962730432781885e-05 0.0000000000000000e+00  1.2724859049508722e-02 -2.0414761586305084e-03 0.0000000000000000e+00  1.2808807095946536e-02 -4.0753298550615623e-03 0.0000000000000000e+00  1.6104968963617756e-02 4.4013669190597566e-03 0.0000000000000000e+00  1.6027008432934305e-02 2.1802449704678099e-03 0.0000000000000000e+00  1.6000474616976040e-02 -2.6695003638776388e-05 0.0000000000000000e+00  1.6025637104964095e-02 -2.2331103370670873e-03 0.0000000000000000e+00  1.6102960507501388e-02 -4.4529731107194803e-03 0.0000000000000000e+00  1.9668764108265669e-02 4.7503710075269198e-03 0.0000000000000000e+00  1.9596086753741287e-02 2.3561100596251675e-03 0.0000000000000000e+00  1.9571919039127535e-02 -2.7618474769422380e-05 0.0000000000000000e+00  1.9595404822658348e-02 -2.4114804583739830e-03 0.0000000000000000e+00  1.9667597346291615e-02 -4.8052268147728604e-03 0.0000000000000000e+00  2.3492889975373514e-02 5.0828181491302934e-03 0.0000000000000000e+00  2.3423839861060572e-02 2.5215325336549479e-03 0.0000000000000000e+00  2.3400766462708830e-02 -2.8913104729910053e-05 0.0000000000000000e+00  2.3422725993497314e-02 -2.5791304605189795e-03 0.0000000000000000e+00  2.3491220969995640e-02 -5.1385737338533900e-03 0.0000000000000000e+00  2.7569703619617004e-02 5.3982826343765842e-03 0.0000000000000000e+00  2.7503886310185049e-02 2.6789428649813449e-03 0.0000000000000000e+00  2.7481593552323814e-02 -2.8878771797964196e-05 0.0000000000000000e+00  2.7501405610305396e-02 -2.7366907490955837e-03 0.0000000000000000e+00  2.7565441309306805e-02 -5.4557426705628001e-03 0.0000000000000000e+00  3.1881577960901991e-02 5.6934597112031689e-03 0.0000000000000000e+00  3.1821839312129861e-02 2.8254837657030033e-03 0.0000000000000000e+00  3.1801743925422968e-02 -2.8694681760125760e-05 0.0000000000000000e+00  3.1820350459512453e-02 -2.8833884921149497e-03 0.0000000000000000e+00  3.1879691833492943e-02 -5.7507138918670543e-03 0.0000000000000000e+00  3.6418946941881809e-02 5.9634902069322371e-03 0.0000000000000000e+00  3.6363140750526553e-02 2.9603276953285886e-03 0.0000000000000000e+00  3.6344215998067052e-02 -2.8369949314405133e-05 0.0000000000000000e+00  3.6361058316507294e-02 -3.0170176847674254e-03 0.0000000000000000e+00  3.6414893524182847e-02 -6.0197888084693885e-03 0.0000000000000000e+00  4.1147800161297383e-02 6.2051840678653408e-03 0.0000000000000000e+00  4.1099021825674514e-02 3.0819474561420653e-03 0.0000000000000000e+00  4.1082402209281922e-02 -2.7542822527291308e-05 0.0000000000000000e+00  4.1097300054765570e-02 -3.1372650149391616e-03 0.0000000000000000e+00  4.1145028868541413e-02 -6.2594777286006332e-03 0.0000000000000000e+00  4.6052875238570448e-02 6.4211194539563927e-03 0.0000000000000000e+00  4.6007905803852063e-02 3.1909423268861796e-03 0.0000000000000000e+00  4.5992293766973003e-02 -2.6677236753002564e-05 0.0000000000000000e+00  4.6005489058129824e-02 -3.2438485087087532e-03 0.0000000000000000e+00  4.6048448098444092e-02 -6.4724852091785157e-03 0.0000000000000000e+00  5.1109048577838108e-02 6.6149541242408001e-03 0.0000000000000000e+00  5.1068322489411525e-02 3.2897996247635377e-03 0.0000000000000000e+00  5.1053725200933951e-02 -2.4897169585638124e-05 0.0000000000000000e+00  5.1064934708237329e-02 -3.3398640121420475e-03 0.0000000000000000e+00  5.1103444952584835e-02 -6.6644702065168666e-03 0.0000000000000000e+00  5.6302108960095548e-02 6.7915407677155981e-03 0.0000000000000000e+00  5.6264995651351513e-02 3.3796510247138430e-03 0.0000000000000000e+00  5.6252016189287719e-02 -2.3202062851861755e-05 0.0000000000000000e+00  5.6262701660116675e-02 -3.4268017692205099e-03 0.0000000000000000e+00  5.6298218987478235e-02 -6.8388273122672785e-03 0.0000000000000000e+00  6.1625748397989330e-02 6.9549453116027156e-03 0.0000000000000000e+00  6.1591059922711612e-02 3.4618034692455273e-03 0.0000000000000000e+00  6.1579296548067590e-02 -2.1927680356954021e-05 0.0000000000000000e+00  6.1588936188750769e-02 -3.5060579347261740e-03 0.0000000000000000e+00  6.1621127478821869e-02 -6.9988268599316134e-03 0.0000000000000000e+00  6.7065894281456387e-02 7.1012674706126249e-03 0.0000000000000000e+00  6.7036197708359946e-02 3.5354540789137427e-03 0.0000000000000000e+00  6.7025670517611713e-02 -2.0333025988710671e-05 0.0000000000000000e+00  6.7033574945575963e-02 -3.5769226469161098e-03 0.0000000000000000e+00  6.7061779364450055e-02 -7.1419507095639633e-03 0.0000000000000000e+00  7.2615721101776387e-02 7.2314998823294827e-03 0.0000000000000000e+00  7.2587865631146595e-02 3.6009052917040920e-03 0.0000000000000000e+00  7.2578243065413231e-02 -1.8609462195477828e-05 0.0000000000000000e+00  7.2585227294567456e-02 -3.6383549073536019e-03 0.0000000000000000e+00  7.2610249958024814e-02 -7.2685496886433594e-03 0.0000000000000000e+00  7.8255487469206825e-02 7.3426469015934756e-03 0.0000000000000000e+00  7.8233680297276925e-02 3.6566627492941829e-03 0.0000000000000000e+00  7.8226084223417425e-02 -1.7322601942507355e-05 0.0000000000000000e+00  7.8231783565853821e-02 -3.6914064129098833e-03 0.0000000000000000e+00  7.8252377430208617e-02 -7.3767596471838361e-03 0.0000000000000000e+00  8.3976529402498321e-02 7.4306643188316234e-03 0.0000000000000000e+00  8.3958981666269153e-02 3.7004405875680079e-03 0.0000000000000000e+00  8.3952609180782484e-02 -1.6309622956172787e-05 0.0000000000000000e+00  8.3956652079205871e-02 -3.7331415295565940e-03 0.0000000000000000e+00  8.3972667398997211e-02 -7.4615253106541267e-03 0.0000000000000000e+00  8.9754835125291824e-02 7.4932540901918188e-03 0.0000000000000000e+00  8.9742242319080276e-02 3.7328527339442444e-03 0.0000000000000000e+00  8.9737428938384545e-02 -1.4683155586192059e-05 0.0000000000000000e+00  8.9739788576890397e-02 -3.7624614450841158e-03 0.0000000000000000e+00  8.9750546469361661e-02 -7.5225925197384223e-03 0.0000000000000000e+00  9.5565773231194501e-02 7.5287712752031321e-03 0.0000000000000000e+00  9.5559332881539963e-02 3.7521870889175167e-03 0.0000000000000000e+00  9.5557073869916909e-02 -1.3347725403179700e-05 0.0000000000000000e+00  9.5558370768569961e-02 -3.7796387314721629e-03 0.0000000000000000e+00  9.5564110502950592e-02 -7.5554882491082895e-03 0.0000000000000000e+00  1.0139238961668109e-01 7.5445860388127714e-03 0.0000000000000000e+00  1.0138645883261203e-01 3.7623667032256197e-03 0.0000000000000000e+00  1.0138369968580074e-01 -1.2162034498863088e-05 0.0000000000000000e+00  1.0138418903398183e-01 -3.7869181739052975e-03 0.0000000000000000e+00  1.0138803493693663e-01 -7.5661646609781691e-03 0.0000000000000000e+00  1.0721014049140870e-01 7.5485074792257757e-03 0.0000000000000000e+00  1.0720746435925481e-01 3.7686892264403439e-03 0.0000000000000000e+00  1.0720507286775845e-01 -9.2008339119005874e-06 0.0000000000000000e+00  1.0720461473388729e-01 -3.7876180864797951e-03 0.0000000000000000e+00  1.0720469011990019e-01 -7.5673846667379538e-03 0.0000000000000000e+00  </DataArray> 
</PointData> 
</Piece>
</UnstructuredGrid>
</VTKFile>