<?xml version="1.0"?>
<VTKFile type="UnstructuredGrid"  version="0.1"  >
<UnstructuredGrid>
<Piece  NumberOfPoints="135" NumberOfCells="208">
<Points>
<DataArray  type="Float64"  NumberOfComponents="3"  format="ascii">-0.05 0 0  -0.025 0 0  0 0 0  0.02500000000000001 0 0  0.05 0 0  -0.05 0.03846153846153846 0  -0.025 0.03846153846153846 0  0 0.03846153846153846 0  0.02500000000000001 0.03846153846153846 0  0.05 0.03846153846153846 0  -0.05 0.07692307692307693 0  -0.025 0.07692307692307693 0  0 0.07692307692307693 0  0.02500000000000001 0.07692307692307693 0  0.05 0.07692307692307693 0  -0.05 0.1153846153846154 0  -0.025 0.1153846153846154 0  0 0.1153846153846154 0  0.02500000000000001 0.1153846153846154 0  0.05 0.1153846153846154 0  -0.05 0.1538461538461539 0  -0.025 0.1538461538461539 0  0 0.1538461538461539 0  0.02500000000000001 0.1538461538461539 0  0.05 0.1538461538461539 0  -0.05 0.1923076923076923 0  -0.025 0.1923076923076923 0  0 0.1923076923076923 0  0.02500000000000001 0.1923076923076923 0  0.05 0.1923076923076923 0  -0.05 0.2307692307692308 0  -0.025 0.2307692307692308 0  0 0.2307692307692308 0  0.02500000000000001 0.2307692307692308 0  0.05 0.2307692307692308 0  -0.05 0.2692307692307692 0  -0.025 0.2692307692307692 0  0 0.2692307692307692 0  0.02500000000000001 0.2692307692307692 0  0.05 0.2692307692307692 0  -0.05 0.3076923076923077 0  -0.025 0.3076923076923077 0  0 0.3076923076923077 0  0.02500000000000001 0.3076923076923077 0  0.05 0.3076923076923077 0  -0.05 0.3461538461538461 0  -0.025 0.3461538461538461 0  0 0.3461538461538461 0  0.02500000000000001 0.3461538461538461 0  0.05 0.3461538461538461 0  -0.05 0.3846153846153846 0  -0.025 0.3846153846153846 0  0 0.3846153846153846 0  0.02500000000000001 0.3846153846153846 0  0.05 0.3846153846153846 0  -0.05 0.4230769230769231 0  -0.025 0.4230769230769231 0  0 0.4230769230769231 0  0.02500000000000001 0.4230769230769231 0  0.05 0.4230769230769231 0  -0.05 0.4615384615384616 0  -0.025 0.4615384615384616 0  0 0.4615384615384616 0  0.02500000000000001 0.4615384615384616 0  0.05 0.4615384615384616 0  -0.05 0.5 0  -0.025 0.5 0  0 0.5 0  0.02500000000000001 0.5 0  0.05 0.5 0  -0.05 0.5384615384615384 0  -0.025 0.5384615384615384 0  0 0.5384615384615384 0  0.02500000000000001 0.5384615384615384 0  0.05 0.5384615384615384 0  -0.05 0.5769230769230769 0  -0.025 0.5769230769230769 0  0 0.5769230769230769 0  0.02500000000000001 0.5769230769230769 0  0.05 0.5769230769230769 0  -0.05 0.6153846153846154 0  -0.025 0.6153846153846154 0  0 0.6153846153846154 0  0.02500000000000001 0.6153846153846154 0  0.05 0.6153846153846154 0  -0.05 0.6538461538461539 0  -0.025 0.6538461538461539 0  0 0.6538461538461539 0  0.02500000000000001 0.6538461538461539 0  0.05 0.6538461538461539 0  -0.05 0.6923076923076923 0  -0.025 0.6923076923076923 0  0 0.6923076923076923 0  0.02500000000000001 0.6923076923076923 0  0.05 0.6923076923076923 0  -0.05 0.7307692307692307 0  -0.025 0.7307692307692307 0  0 0.7307692307692307 0  0.02500000000000001 0.7307692307692307 0  0.05 0.7307692307692307 0  -0.05 0.7692307692307693 0  -0.025 0.7692307692307693 0  0 0.7692307692307693 0  0.02500000000000001 0.7692307692307693 0  0.05 0.7692307692307693 0  -0.05 0.8076923076923077 0  -0.025 0.8076923076923077 0  0 0.8076923076923077 0  0.02500000000000001 0.8076923076923077 0  0.05 0.8076923076923077 0  -0.05 0.8461538461538461 0  -0.025 0.8461538461538461 0  0 0.8461538461538461 0  0.02500000000000001 0.8461538461538461 0  0.05 0.8461538461538461 0  -0.05 0.8846153846153846 0  -0.025 0.8846153846153846 0  0 0.8846153846153846 0  0.02500000000000001 0.8846153846153846 0  0.05 0.8846153846153846 0  -0.05 0.9230769230769231 0  -0.025 0.9230769230769231 0  0 0.9230769230769231 0  0.02500000000000001 0.9230769230769231 0  0.05 0.9230769230769231 0  -0.05 0.9615384615384616 0  -0.025 0.9615384615384616 0  0 0.9615384615384616 0  0.02500000000000001 0.9615384615384616 0  0.05 0.9615384615384616 0  -0.05 1 0  -0.025 1 0  0 1 0  0.02500000000000001 1 0  0.05 1 0  </DataArray>
</Points>
<Cells>
<DataArray  type="UInt32"  Name="connectivity"  format="ascii">0 1 6  0 5 6  1 2 7  1 6 7  2 3 8  2 7 8  3 4 9  3 8 9  5 6 11  5 10 11  6 7 12  6 11 12  7 8 13  7 12 13  8 9 14  8 13 14  10 11 16  10 15 16  11 12 17  11 16 17  12 13 18  12 17 18  13 14 19  13 18 19  15 16 21  15 20 21  16 17 22  16 21 22  17 18 23  17 22 23  18 19 24  18 23 24  20 21 26  20 25 26  21 22 27  21 26 27  22 23 28  22 27 28  23 24 29  23 28 29  25 26 31  25 30 31  26 27 32  26 31 32  27 28 33  27 32 33  28 29 34  28 33 34  30 31 36  30 35 36  31 32 37  31 36 37  32 33 38  32 37 38  33 34 39  33 38 39  35 36 41  35 40 41  36 37 42  36 41 42  37 38 43  37 42 43  38 39 44  38 43 44  40 41 46  40 45 46  41 42 47  41 46 47  42 43 48  42 47 48  43 44 49  43 48 49  45 46 51  45 50 51  46 47 52  46 51 52  47 48 53  47 52 53  48 49 54  48 53 54  50 51 56  50 55 56  51 52 57  51 56 57  52 53 58  52 57 58  53 54 59  53 58 59  55 56 61  55 60 61  56 57 62  56 61 62  57 58 63  57 62 63  58 59 64  58 63 64  60 61 66  60 65 66  61 62 67  61 66 67  62 63 68  62 67 68  63 64 69  63 68 69  65 66 71  65 70 71  66 67 72  66 71 72  67 68 73  67 72 73  68 69 74  68 73 74  70 71 76  70 75 76  71 72 77  71 76 77  72 73 78  72 77 78  73 74 79  73 78 79  75 76 81  75 80 81  76 77 82  76 81 82  77 78 83  77 82 83  78 79 84  78 83 84  80 81 86  80 85 86  81 82 87  81 86 87  82 83 88  82 87 88  83 84 89  83 88 89  85 86 91  85 90 91  86 87 92  86 91 92  87 88 93  87 92 93  88 89 94  88 93 94  90 91 96  90 95 96  91 92 97  91 96 97  92 93 98  92 97 98  93 94 99  93 98 99  95 96 101  95 100 101  96 97 102  96 101 102  97 98 103  97 102 103  98 99 104  98 103 104  100 101 106  100 105 106  101 102 107  101 106 107  102 103 108  102 107 108  103 104 109  103 108 109  105 106 111  105 110 111  106 107 112  106 111 112  107 108 113  107 112 113  108 109 114  108 113 114  110 111 116  110 115 116  111 112 117  111 116 117  112 113 118  112 117 118  113 114 119  113 118 119  115 116 121  115 120 121  116 117 122  116 121 122  117 118 123  117 122 123  118 119 124  118 123 124  120 121 126  120 125 126  121 122 127  121 126 127  122 123 128  122 127 128  123 124 129  123 128 129  125 126 131  125 130 131  126 127 132  126 131 132  127 128 133  127 132 133  128 129 134  128 133 134  </DataArray>
<DataArray  type="UInt32"  Name="offsets"  format="ascii">3 6 9 12 15 18 21 24 27 30 33 36 39 42 45 48 51 54 57 60 63 66 69 72 75 78 81 84 87 90 93 96 99 102 105 108 111 114 117 120 123 126 129 132 135 138 141 144 147 150 153 156 159 162 165 168 171 174 177 180 183 186 189 192 195 198 201 204 207 210 213 216 219 222 225 228 231 234 237 240 243 246 249 252 255 258 261 264 267 270 273 276 279 282 285 288 291 294 297 300 303 306 309 312 315 318 321 324 327 330 333 336 339 342 345 348 351 354 357 360 363 366 369 372 375 378 381 384 387 390 393 396 399 402 405 408 411 414 417 420 423 426 429 432 435 438 441 444 447 450 453 456 459 462 465 468 471 474 477 480 483 486 489 492 495 498 501 504 507 510 513 516 519 522 525 528 531 534 537 540 543 546 549 552 555 558 561 564 567 570 573 576 579 582 585 588 591 594 597 600 603 606 609 612 615 618 621 624 </DataArray>
<DataArray  type="UInt8"  Name="types"  format="ascii">5 5 5 5 5 5 5 5 5 5 5 5 5 5 5 5 5 5 5 5 5 5 5 5 5 5 5 5 5 5 5 5 5 5 5 5 5 5 5 5 5 5 5 5 5 5 5 5 5 5 5 5 5 5 5 5 5 5 5 5 5 5 5 5 5 5 5 5 5 5 5 5 5 5 5 5 5 5 5 5 5 5 5 5 5 5 5 5 5 5 5 5 5 5 5 5 5 5 5 5 5 5 5 5 5 5 5 5 5 5 5 5 5 5 5 5 5 5 5 5 5 5 5 5 5 5 5 5 5 5 5 5 5 5 5 5 5 5 5 5 5 5 5 5 5 5 5 5 5 5 5 5 5 5 5 5 5 5 5 5 5 5 5 5 5 5 5 5 5 5 5 5 5 5 5 5 5 5 5 5 5 5 5 5 5 5 5 5 5 5 5 5 5 5 5 5 5 5 5 5 5 5 5 5 5 5 5 5 </DataArray>
</Cells>
<PointData  Vectors="Displacement"> 
<DataArray  type="Float64"  Name="Displacement"  NumberOfComponents="3" format="ascii">-4.5074837820700769e-16 3.4427540100958896e-18 0.0000000000000000e+00  0.0000000000000000e+00 0.0000000000000000e+00 0.0000000000000000e+00  0.0000000000000000e+00 0.0000000000000000e+00 0.0000000000000000e+00  -5.3761345912262492e-17 5.8308486967562460e-19 0.0000000000000000e+00  1.6128403773678749e-16 -1.7492546090268740e-18 0.0000000000000000e+00  9.6258076330733156e-05 1.6062348372418569e-04 0.0000000000000000e+00  5.8316853555056268e-05 8.3918561060109605e-05 0.0000000000000000e+00  4.2071723708249474e-05 8.5379303344275104e-06 0.0000000000000000e+00  5.0104367089979359e-05 -6.6276027140038183e-05 0.0000000000000000e+00  8.2354861036375166e-05 -1.4406020512892215e-04 0.0000000000000000e+00  2.6673687228805532e-04 3.2601133655848585e-04 0.0000000000000000e+00  2.2971503425781663e-04 1.7331961053959147e-04 0.0000000000000000e+00  2.1566266174157292e-04 1.8078949509359110e-05 0.0000000000000000e+00  2.2405662091946465e-04 -1.3830620793527765e-04 0.0000000000000000e+00  2.5472200617783199e-04 -2.9300707698112424e-04 0.0000000000000000e+00  5.6300068915634009e-04 4.9939470272996548e-04 0.0000000000000000e+00  5.2536356759909147e-04 2.6386489445289808e-04 0.0000000000000000e+00  5.1182325584277970e-04 2.6932105276708330e-05 0.0000000000000000e+00  5.2121512731740358e-04 -2.1031223625574803e-04 0.0000000000000000e+00  5.5259081682023888e-04 -4.4657409702866379e-04 0.0000000000000000e+00  9.8950908571308871e-04 6.7670605342462021e-04 0.0000000000000000e+00  9.5101415708386124e-04 3.5614455063999879e-04 0.0000000000000000e+00  9.3683656394604007e-04 3.5790721714198415e-05 0.0000000000000000e+00  9.4545936194556375e-04 -2.8439680851920029e-04 0.0000000000000000e+00  9.7740890725527127e-04 -6.0460035298824048e-04 0.0000000000000000e+00  1.5495536400353246e-03 8.5592736682964016e-04 0.0000000000000000e+00  1.5122215063065939e-03 4.4903544212533144e-04 0.0000000000000000e+00  1.4982054628473452e-03 4.5323385917596531e-05 0.0000000000000000e+00  1.5065711807154391e-03 -3.5814854560720143e-04 0.0000000000000000e+00  1.5382078912543034e-03 -7.6553247461070759e-04 0.0000000000000000e+00  2.2471382342438007e-03 1.0283962507886923e-03 0.0000000000000000e+00  2.2111919938146729e-03 5.3859833365694132e-04 0.0000000000000000e+00  2.1981169988197604e-03 5.4700469957668451e-05 0.0000000000000000e+00  2.2062946403091648e-03 -4.2986255007226431e-04 0.0000000000000000e+00  2.2367391422783742e-03 -9.2040646641560169e-04 0.0000000000000000e+00  3.0696424999473279e-03 1.1871374955712080e-03 0.0000000000000000e+00  3.0388170007846940e-03 6.2046342333473079e-04 0.0000000000000000e+00  3.0273420431067423e-03 6.3006374865323596e-05 0.0000000000000000e+00  3.0339153189697285e-03 -4.9471662074422205e-04 0.0000000000000000e+00  3.0601974659022883e-03 -1.0616218914170543e-03 0.0000000000000000e+00  4.0096177715959512e-03 1.3252118505470015e-03 0.0000000000000000e+00  3.9822228134156817e-03 6.9279165012108815e-04 0.0000000000000000e+00  3.9716368552668701e-03 7.2143215545983030e-05 0.0000000000000000e+00  3.9770478642464019e-03 -5.4975650911423535e-04 0.0000000000000000e+00  3.9994449156940349e-03 -1.1839005177972134e-03 0.0000000000000000e+00  5.0394303912454641e-03 1.4396109637914891e-03 0.0000000000000000e+00  5.0172562221003029e-03 7.5396626376633962e-04 0.0000000000000000e+00  5.0089970318103758e-03 8.0373668492355111e-05 0.0000000000000000e+00  5.0139922767226215e-03 -5.9408977784832244e-04 0.0000000000000000e+00  5.0315261829477495e-03 -1.2811485819462138e-03 0.0000000000000000e+00  6.1434380348064010e-03 1.5303454638458658e-03 0.0000000000000000e+00  6.1264724098673501e-03 8.0322261551290977e-04 0.0000000000000000e+00  6.1198897633869985e-03 8.8163677751907239e-05 0.0000000000000000e+00  6.1229883125791165e-03 -6.2704904524960503e-04 0.0000000000000000e+00  6.1353792749101951e-03 -1.3539814489627829e-03 0.0000000000000000e+00  7.3007448663760443e-03 1.5958815921685893e-03 0.0000000000000000e+00  7.2877004123815510e-03 8.4080370606173706e-04 0.0000000000000000e+00  7.2820320164843711e-03 9.6011429725444247e-05 0.0000000000000000e+00  7.2832922241458323e-03 -6.4847474378936681e-04 0.0000000000000000e+00  7.2914329967136669e-03 -1.4035702794495516e-03 0.0000000000000000e+00  8.4854207470544656e-03 1.6392788088052412e-03 0.0000000000000000e+00  8.4776237365023956e-03 8.6759632537639065e-04 0.0000000000000000e+00  8.4739712877061682e-03 1.0344054719816669e-04 0.0000000000000000e+00  8.4746540726788212e-03 -6.6076445983152550e-04 0.0000000000000000e+00  8.4790903025996518e-03 -1.4327578803371452e-03 0.0000000000000000e+00  9.6900042108102828e-03 1.6677595906930359e-03 0.0000000000000000e+00  9.6828030970263230e-03 8.8627280771075615e-04 0.0000000000000000e+00  9.6791583004249837e-03 1.0962729299709680e-04 0.0000000000000000e+00  9.6788906258784991e-03 -6.6686914187057340e-04 0.0000000000000000e+00  9.6813548201493717e-03 -1.4476908123168964e-03 0.0000000000000000e+00  1.0899795852134951e-02 1.6881040045010176e-03 0.0000000000000000e+00  1.0895528673078374e-02 9.0076177198905811e-04 0.0000000000000000e+00  1.0893206865822784e-02 1.1616383627194937e-04 0.0000000000000000e+00  1.0892459422420156e-02 -6.6845420322191799e-04 0.0000000000000000e+00  1.0893304100320024e-02 -1.4564487727650002e-03 0.0000000000000000e+00  1.2120202936641953e-02 1.7029118056324640e-03 0.0000000000000000e+00  1.2116984423960191e-02 9.1071351201831572e-04 0.0000000000000000e+00  1.2115823804415435e-02 1.2230739189842308e-04 0.0000000000000000e+00  1.2114864805004526e-02 -6.6627015530913941e-04 0.0000000000000000e+00  1.2114170711308467e-02 -1.4589666442642634e-03 0.0000000000000000e+00  1.3343161378539931e-02 1.7098699795325728e-03 0.0000000000000000e+00  1.3341644714030168e-02 9.1706668082947723e-04 0.0000000000000000e+00  1.3340580180247641e-02 1.2751412272504265e-04 0.0000000000000000e+00  1.3339685759546943e-02 -6.6179143098094050e-04 0.0000000000000000e+00  1.3338518625287638e-02 -1.4539031378357048e-03 0.0000000000000000e+00  1.4565148202595227e-02 1.7099066091917478e-03 0.0000000000000000e+00  1.4565102649349135e-02 9.1963102110428311e-04 0.0000000000000000e+00  1.4564662097656143e-02 1.3263504270248687e-04 0.0000000000000000e+00  1.4562874948767597e-02 -6.5416822570839740e-04 0.0000000000000000e+00  1.4559613703626921e-02 -1.4438725199704260e-03 0.0000000000000000e+00  1.5781090164484736e-02 1.7040425800545437e-03 0.0000000000000000e+00  1.5781442935658488e-02 9.1900849348549619e-04 0.0000000000000000e+00  1.5781098784603560e-02 1.3727004091430549e-04 0.0000000000000000e+00  1.5778917604519944e-02 -6.4376736788091470e-04 0.0000000000000000e+00  1.5775168148129952e-02 -1.4274844643088003e-03 0.0000000000000000e+00  1.6983097404586135e-02 1.6908223153541734e-03 0.0000000000000000e+00  1.6986173135611304e-02 9.1501331901285704e-04 0.0000000000000000e+00  1.6986268598579525e-02 1.4195399324648127e-04 0.0000000000000000e+00  1.6983468503482767e-02 -6.3089156870459575e-04 0.0000000000000000e+00  1.6978093031991808e-02 -1.4057825257026292e-03 0.0000000000000000e+00  1.8170533298274723e-02 1.6721230199607411e-03 0.0000000000000000e+00  1.8172321912788943e-02 9.0895286885482433e-04 0.0000000000000000e+00  1.8172051575172123e-02 1.4655800162272843e-04 0.0000000000000000e+00  1.8169430119328398e-02 -6.1571385133168878e-04 0.0000000000000000e+00  1.8163875204874173e-02 -1.3781533938925367e-03 0.0000000000000000e+00  1.9329498593805873e-02 1.6525136606501992e-03 0.0000000000000000e+00  1.9331744976380918e-02 9.0356559472215417e-04 0.0000000000000000e+00  1.9331465456416452e-02 1.5127135573376343e-04 0.0000000000000000e+00  1.9329247821360664e-02 -6.0090900088291088e-04 0.0000000000000000e+00  1.9324151711385438e-02 -1.3499566091005660e-03 0.0000000000000000e+00  2.0468957274491242e-02 1.6407464536368863e-03 0.0000000000000000e+00  2.0468668365699650e-02 9.0018535464799854e-04 0.0000000000000000e+00  2.0468538445022496e-02 1.5507768350239481e-04 0.0000000000000000e+00  2.0467060254305919e-02 -5.8966966202818295e-04 0.0000000000000000e+00  2.0463778557150904e-02 -1.3287410147944231e-03 0.0000000000000000e+00  2.1598712307663505e-02 1.6404849201389396e-03 0.0000000000000000e+00  2.1596379917614941e-02 9.0128634292660004e-04 0.0000000000000000e+00  2.1595622555608200e-02 1.5859061619454660e-04 0.0000000000000000e+00  2.1594736557788041e-02 -5.8299659838972158e-04 0.0000000000000000e+00  2.1594229849845440e-02 -1.3200886107107934e-03 0.0000000000000000e+00  2.2731585572245149e-02 1.6475372007143767e-03 0.0000000000000000e+00  2.2729547516977110e-02 9.0494040739938042e-04 0.0000000000000000e+00  2.2728467900326538e-02 1.6167094987935246e-04 0.0000000000000000e+00  2.2727728174841543e-02 -5.8063034700391600e-04 0.0000000000000000e+00  2.2728195720053464e-02 -1.3211304201061229e-03 0.0000000000000000e+00  2.3878412368844359e-02 1.6569304238715525e-03 0.0000000000000000e+00  2.3873882644917677e-02 9.0922379098623790e-04 0.0000000000000000e+00  2.3872268454336543e-02 1.6402934806534550e-04 0.0000000000000000e+00  2.3872028156172165e-02 -5.8040747038817710e-04 0.0000000000000000e+00  2.3874466692673291e-02 -1.3253799675216902e-03 0.0000000000000000e+00  2.5026707509845671e-02 1.6614592345336747e-03 0.0000000000000000e+00  2.5024848810485209e-02 9.1370555237529352e-04 0.0000000000000000e+00  2.5022810640699639e-02 1.6684080553020574e-04 0.0000000000000000e+00  2.5022330436122259e-02 -5.7976993203593709e-04 0.0000000000000000e+00  2.5022912865196228e-02 -1.3272962035574829e-03 0.0000000000000000e+00  </DataArray> 
</PointData> 
</Piece>
</UnstructuredGrid>
</VTKFile>