<?xml version="1.0"?>
<VTKFile type="UnstructuredGrid"  version="0.1"  >
<UnstructuredGrid>
<Piece  NumberOfPoints="135" NumberOfCells="208">
<Points>
<DataArray  type="Float64"  NumberOfComponents="3"  format="ascii">-0.05 0 0  -0.025 0 0  0 0 0  0.02500000000000001 0 0  0.05 0 0  -0.05 0.03846153846153846 0  -0.025 0.03846153846153846 0  0 0.03846153846153846 0  0.02500000000000001 0.03846153846153846 0  0.05 0.03846153846153846 0  -0.05 0.07692307692307693 0  -0.025 0.07692307692307693 0  0 0.07692307692307693 0  0.02500000000000001 0.07692307692307693 0  0.05 0.07692307692307693 0  -0.05 0.1153846153846154 0  -0.025 0.1153846153846154 0  0 0.1153846153846154 0  0.02500000000000001 0.1153846153846154 0  0.05 0.1153846153846154 0  -0.05 0.1538461538461539 0  -0.025 0.1538461538461539 0  0 0.1538461538461539 0  0.02500000000000001 0.1538461538461539 0  0.05 0.1538461538461539 0  -0.05 0.1923076923076923 0  -0.025 0.1923076923076923 0  0 0.1923076923076923 0  0.02500000000000001 0.1923076923076923 0  0.05 0.1923076923076923 0  -0.05 0.2307692307692308 0  -0.025 0.2307692307692308 0  0 0.2307692307692308 0  0.02500000000000001 0.2307692307692308 0  0.05 0.2307692307692308 0  -0.05 0.2692307692307692 0  -0.025 0.2692307692307692 0  0 0.2692307692307692 0  0.02500000000000001 0.2692307692307692 0  0.05 0.2692307692307692 0  -0.05 0.3076923076923077 0  -0.025 0.3076923076923077 0  0 0.3076923076923077 0  0.02500000000000001 0.3076923076923077 0  0.05 0.3076923076923077 0  -0.05 0.3461538461538461 0  -0.025 0.3461538461538461 0  0 0.3461538461538461 0  0.02500000000000001 0.3461538461538461 0  0.05 0.3461538461538461 0  -0.05 0.3846153846153846 0  -0.025 0.3846153846153846 0  0 0.3846153846153846 0  0.02500000000000001 0.3846153846153846 0  0.05 0.3846153846153846 0  -0.05 0.4230769230769231 0  -0.025 0.4230769230769231 0  0 0.4230769230769231 0  0.02500000000000001 0.4230769230769231 0  0.05 0.4230769230769231 0  -0.05 0.4615384615384616 0  -0.025 0.4615384615384616 0  0 0.4615384615384616 0  0.02500000000000001 0.4615384615384616 0  0.05 0.4615384615384616 0  -0.05 0.5 0  -0.025 0.5 0  0 0.5 0  0.02500000000000001 0.5 0  0.05 0.5 0  -0.05 0.5384615384615384 0  -0.025 0.5384615384615384 0  0 0.5384615384615384 0  0.02500000000000001 0.5384615384615384 0  0.05 0.5384615384615384 0  -0.05 0.5769230769230769 0  -0.025 0.5769230769230769 0  0 0.5769230769230769 0  0.02500000000000001 0.5769230769230769 0  0.05 0.5769230769230769 0  -0.05 0.6153846153846154 0  -0.025 0.6153846153846154 0  0 0.6153846153846154 0  0.02500000000000001 0.6153846153846154 0  0.05 0.6153846153846154 0  -0.05 0.6538461538461539 0  -0.025 0.6538461538461539 0  0 0.6538461538461539 0  0.02500000000000001 0.6538461538461539 0  0.05 0.6538461538461539 0  -0.05 0.6923076923076923 0  -0.025 0.6923076923076923 0  0 0.6923076923076923 0  0.02500000000000001 0.6923076923076923 0  0.05 0.6923076923076923 0  -0.05 0.7307692307692307 0  -0.025 0.7307692307692307 0  0 0.7307692307692307 0  0.02500000000000001 0.7307692307692307 0  0.05 0.7307692307692307 0  -0.05 0.7692307692307693 0  -0.025 0.7692307692307693 0  0 0.7692307692307693 0  0.02500000000000001 0.7692307692307693 0  0.05 0.7692307692307693 0  -0.05 0.8076923076923077 0  -0.025 0.8076923076923077 0  0 0.8076923076923077 0  0.02500000000000001 0.8076923076923077 0  0.05 0.8076923076923077 0  -0.05 0.8461538461538461 0  -0.025 0.8461538461538461 0  0 0.8461538461538461 0  0.02500000000000001 0.8461538461538461 0  0.05 0.8461538461538461 0  -0.05 0.8846153846153846 0  -0.025 0.8846153846153846 0  0 0.8846153846153846 0  0.02500000000000001 0.8846153846153846 0  0.05 0.8846153846153846 0  -0.05 0.9230769230769231 0  -0.025 0.9230769230769231 0  0 0.9230769230769231 0  0.02500000000000001 0.9230769230769231 0  0.05 0.9230769230769231 0  -0.05 0.9615384615384616 0  -0.025 0.9615384615384616 0  0 0.9615384615384616 0  0.02500000000000001 0.9615384615384616 0  0.05 0.9615384615384616 0  -0.05 1 0  -0.025 1 0  0 1 0  0.02500000000000001 1 0  0.05 1 0  </DataArray>
</Points>
<Cells>
<DataArray  type="UInt32"  Name="connectivity"  format="ascii">0 1 6  0 5 6  1 2 7  1 6 7  2 3 8  2 7 8  3 4 9  3 8 9  5 6 11  5 10 11  6 7 12  6 11 12  7 8 13  7 12 13  8 9 14  8 13 14  10 11 16  10 15 16  11 12 17  11 16 17  12 13 18  12 17 18  13 14 19  13 18 19  15 16 21  15 20 21  16 17 22  16 21 22  17 18 23  17 22 23  18 19 24  18 23 24  20 21 26  20 25 26  21 22 27  21 26 27  22 23 28  22 27 28  23 24 29  23 28 29  25 26 31  25 30 31  26 27 32  26 31 32  27 28 33  27 32 33  28 29 34  28 33 34  30 31 36  30 35 36  31 32 37  31 36 37  32 33 38  32 37 38  33 34 39  33 38 39  35 36 41  35 40 41  36 37 42  36 41 42  37 38 43  37 42 43  38 39 44  38 43 44  40 41 46  40 45 46  41 42 47  41 46 47  42 43 48  42 47 48  43 44 49  43 48 49  45 46 51  45 50 51  46 47 52  46 51 52  47 48 53  47 52 53  48 49 54  48 53 54  50 51 56  50 55 56  51 52 57  51 56 57  52 53 58  52 57 58  53 54 59  53 58 59  55 56 61  55 60 61  56 57 62  56 61 62  57 58 63  57 62 63  58 59 64  58 63 64  60 61 66  60 65 66  61 62 67  61 66 67  62 63 68  62 67 68  63 64 69  63 68 69  65 66 71  65 70 71  66 67 72  66 71 72  67 68 73  67 72 73  68 69 74  68 73 74  70 71 76  70 75 76  71 72 77  71 76 77  72 73 78  72 77 78  73 74 79  73 78 79  75 76 81  75 80 81  76 77 82  76 81 82  77 78 83  77 82 83  78 79 84  78 83 84  80 81 86  80 85 86  81 82 87  81 86 87  82 83 88  82 87 88  83 84 89  83 88 89  85 86 91  85 90 91  86 87 92  86 91 92  87 88 93  87 92 93  88 89 94  88 93 94  90 91 96  90 95 96  91 92 97  91 96 97  92 93 98  92 97 98  93 94 99  93 98 99  95 96 101  95 100 101  96 97 102  96 101 102  97 98 103  97 102 103  98 99 104  98 103 104  100 101 106  100 105 106  101 102 107  101 106 107  102 103 108  102 107 108  103 104 109  103 108 109  105 106 111  105 110 111  106 107 112  106 111 112  107 108 113  107 112 113  108 109 114  108 113 114  110 111 116  110 115 116  111 112 117  111 116 117  112 113 118  112 117 118  113 114 119  113 118 119  115 116 121  115 120 121  116 117 122  116 121 122  117 118 123  117 122 123  118 119 124  118 123 124  120 121 126  120 125 126  121 122 127  121 126 127  122 123 128  122 127 128  123 124 129  123 128 129  125 126 131  125 130 131  126 127 132  126 131 132  127 128 133  127 132 133  128 129 134  128 133 134  </DataArray>
<DataArray  type="UInt32"  Name="offsets"  format="ascii">3 6 9 12 15 18 21 24 27 30 33 36 39 42 45 48 51 54 57 60 63 66 69 72 75 78 81 84 87 90 93 96 99 102 105 108 111 114 117 120 123 126 129 132 135 138 141 144 147 150 153 156 159 162 165 168 171 174 177 180 183 186 189 192 195 198 201 204 207 210 213 216 219 222 225 228 231 234 237 240 243 246 249 252 255 258 261 264 267 270 273 276 279 282 285 288 291 294 297 300 303 306 309 312 315 318 321 324 327 330 333 336 339 342 345 348 351 354 357 360 363 366 369 372 375 378 381 384 387 390 393 396 399 402 405 408 411 414 417 420 423 426 429 432 435 438 441 444 447 450 453 456 459 462 465 468 471 474 477 480 483 486 489 492 495 498 501 504 507 510 513 516 519 522 525 528 531 534 537 540 543 546 549 552 555 558 561 564 567 570 573 576 579 582 585 588 591 594 597 600 603 606 609 612 615 618 621 624 </DataArray>
<DataArray  type="UInt8"  Name="types"  format="ascii">5 5 5 5 5 5 5 5 5 5 5 5 5 5 5 5 5 5 5 5 5 5 5 5 5 5 5 5 5 5 5 5 5 5 5 5 5 5 5 5 5 5 5 5 5 5 5 5 5 5 5 5 5 5 5 5 5 5 5 5 5 5 5 5 5 5 5 5 5 5 5 5 5 5 5 5 5 5 5 5 5 5 5 5 5 5 5 5 5 5 5 5 5 5 5 5 5 5 5 5 5 5 5 5 5 5 5 5 5 5 5 5 5 5 5 5 5 5 5 5 5 5 5 5 5 5 5 5 5 5 5 5 5 5 5 5 5 5 5 5 5 5 5 5 5 5 5 5 5 5 5 5 5 5 5 5 5 5 5 5 5 5 5 5 5 5 5 5 5 5 5 5 5 5 5 5 5 5 5 5 5 5 5 5 5 5 5 5 5 5 5 5 5 5 5 5 5 5 5 5 5 5 5 5 5 5 5 5 </DataArray>
</Cells>
<PointData  Vectors="Displacement"> 
<DataArray  type="Float64"  Name="Displacement"  NumberOfComponents="3" format="ascii">-4.7588417595211823e-16 1.1138321609952690e-17 0.0000000000000000e+00  0.0000000000000000e+00 0.0000000000000000e+00 0.0000000000000000e+00  0.0000000000000000e+00 0.0000000000000000e+00 0.0000000000000000e+00  -5.9985409998712187e-17 1.8895914642120730e-18 0.0000000000000000e+00  1.7995622999613656e-16 -5.6687743926362199e-18 0.0000000000000000e+00  9.0285883283898200e-04 1.3099249978570486e-03 0.0000000000000000e+00  6.3370194624844947e-04 6.1949387934869861e-04 0.0000000000000000e+00  5.3276937657379363e-04 4.3898252542237380e-06 0.0000000000000000e+00  6.1604574915578695e-04 -6.0352290561333682e-04 0.0000000000000000e+00  8.8950910348500173e-04 -1.3090151735891098e-03 0.0000000000000000e+00  2.4879878231857432e-03 2.5138715431375996e-03 0.0000000000000000e+00  2.2440954606439000e-03 1.2323748486368952e-03 0.0000000000000000e+00  2.1611077293263283e-03 8.9860817472743194e-06 0.0000000000000000e+00  2.2417533122698441e-03 -1.2151230425912073e-03 0.0000000000000000e+00  2.4835765574900120e-03 -2.4993116668237713e-03 0.0000000000000000e+00  4.9616089165898658e-03 3.6151450121858905e-03 0.0000000000000000e+00  4.7420441478582759e-03 1.7847961695689539e-03 0.0000000000000000e+00  4.6676707079202316e-03 1.1267121666879680e-05 0.0000000000000000e+00  4.7397769482809314e-03 -1.7619327205309289e-03 0.0000000000000000e+00  4.9582677967959588e-03 -3.5916135968889281e-03 0.0000000000000000e+00  8.2312196622923769e-03 4.6054731634817244e-03 0.0000000000000000e+00  8.0335167538529671e-03 2.2828363410934398e-03 0.0000000000000000e+00  7.9662594433960107e-03 1.4375902347730362e-05 0.0000000000000000e+00  8.0307004146859332e-03 -2.2537363051677883e-03 0.0000000000000000e+00  8.2268914745293187e-03 -4.5753392798189140e-03 0.0000000000000000e+00  1.2214241314105957e-02 5.4917816048872022e-03 0.0000000000000000e+00  1.2038637302347605e-02 2.7291058744377318e-03 0.0000000000000000e+00  1.1978446811031064e-02 1.8367553183402394e-05 0.0000000000000000e+00  1.2035065107018711e-02 -2.6925703606345301e-03 0.0000000000000000e+00  1.2209400636646871e-02 -5.4552648271746001e-03 0.0000000000000000e+00  1.6834690563058134e-02 6.2787421293870379e-03 0.0000000000000000e+00  1.6677690339908593e-02 3.1261180544848188e-03 0.0000000000000000e+00  1.6623930165980141e-02 2.1984671420660733e-05 0.0000000000000000e+00  1.6674834725686441e-02 -3.0821992231468273e-03 0.0000000000000000e+00  1.6829805217036291e-02 -6.2350773742053467e-03 0.0000000000000000e+00  2.2010656780735466e-02 6.9720165346405872e-03 0.0000000000000000e+00  2.1873969735639778e-02 3.4763209480881646e-03 0.0000000000000000e+00  2.1826924545845613e-02 2.5470735807665582e-05 0.0000000000000000e+00  2.1871280637859078e-02 -3.4252988527781929e-03 0.0000000000000000e+00  2.2006670779666272e-02 -6.9200805905025534e-03 0.0000000000000000e+00  2.7676614685725531e-02 7.5779246199293420e-03 0.0000000000000000e+00  2.7554765526972204e-02 3.7845593213893000e-03 0.0000000000000000e+00  2.7511851751316395e-02 2.9144653930897978e-05 0.0000000000000000e+00  2.7550353300036731e-02 -3.7261449443066683e-03 0.0000000000000000e+00  2.7669565787686593e-02 -7.5192729182469624e-03 0.0000000000000000e+00  3.3758480252536381e-02 8.1111660579736514e-03 0.0000000000000000e+00  3.3651201170738852e-02 4.0565251589411789e-03 0.0000000000000000e+00  3.3613954781871146e-02 3.2949183911984009e-05 0.0000000000000000e+00  3.3648446929181869e-02 -3.9909073552834105e-03 0.0000000000000000e+00  3.3753648305811443e-02 -8.0459377130689749e-03 0.0000000000000000e+00  4.0215491468106927e-02 8.5870654983020052e-03 0.0000000000000000e+00  4.0119015750922901e-02 4.2982585416507374e-03 0.0000000000000000e+00  4.0085195395324666e-02 3.5978350462897906e-05 0.0000000000000000e+00  4.0115373875280545e-02 -4.2262652096538246e-03 0.0000000000000000e+00  4.0209225052608578e-02 -8.5143017600694919e-03 0.0000000000000000e+00  4.7008144930283456e-02 9.0149140312477307e-03 0.0000000000000000e+00  4.6920176226068172e-02 4.5163513075729524e-03 0.0000000000000000e+00  4.6889108297558123e-02 3.9767266164464283e-05 0.0000000000000000e+00  4.6916154104152973e-02 -4.4368080476993171e-03 0.0000000000000000e+00  4.7000847592926866e-02 -8.9354465996786970e-03 0.0000000000000000e+00  5.4102446038760160e-02 9.4029920296583788e-03 0.0000000000000000e+00  5.4024011139994416e-02 4.7130805003926671e-03 0.0000000000000000e+00  5.3996524311425730e-02 4.3453529989222382e-05 0.0000000000000000e+00  5.4020603685255353e-02 -4.6263466260223138e-03 0.0000000000000000e+00  5.4096624649132848e-02 -9.3160951383085243e-03 0.0000000000000000e+00  6.1478946243147328e-02 9.7539587817379904e-03 0.0000000000000000e+00  6.1406220363396886e-02 4.8913001875424385e-03 0.0000000000000000e+00  6.1380258992680334e-02 4.6912634803693695e-05 0.0000000000000000e+00  6.1401870623863646e-02 -4.7975088537825809e-03 0.0000000000000000e+00  6.1471057861905758e-02 -9.6601807265294902e-03 0.0000000000000000e+00  6.9101272288776799e-02 1.0070715602653258e-02 0.0000000000000000e+00  6.9037242224809892e-02 5.0521521309398335e-03 0.0000000000000000e+00  6.9014829643828449e-02 5.0673774445694166e-05 0.0000000000000000e+00  6.9034317643296289e-02 -4.9510813835585751e-03 0.0000000000000000e+00  6.9095882721948984e-02 -9.9697563107769491e-03 0.0000000000000000e+00  7.6954658376545235e-02 1.0356529955239058e-02 0.0000000000000000e+00  7.6895729614869554e-02 5.1969035652253588e-03 0.0000000000000000e+00  7.6874629585902632e-02 5.3999226171866537e-05 0.0000000000000000e+00  7.6891535615262865e-02 -5.0886426877325220e-03 0.0000000000000000e+00  7.6946891422742664e-02 -1.0247372049596736e-02 0.0000000000000000e+00  8.5010123971191912e-02 1.0611745923088943e-02 0.0000000000000000e+00  8.4958145928896944e-02 5.3267685341710997e-03 0.0000000000000000e+00  8.4939456605900576e-02 5.8224087372061148e-05 0.0000000000000000e+00  8.4954252595139876e-02 -5.2102219176545523e-03 0.0000000000000000e+00  8.5002995406416940e-02 -1.0494928901195672e-02 0.0000000000000000e+00  9.3248026616194774e-02 1.0837066617732000e-02 0.0000000000000000e+00  9.3202876220377914e-02 5.4407457025877053e-03 0.0000000000000000e+00  9.3186503845722940e-02 6.2140474545629759e-05 0.0000000000000000e+00  9.3198688150807119e-02 -5.3165402575817422e-03 0.0000000000000000e+00  9.3240858661549186e-02 -1.0712622285738186e-02 0.0000000000000000e+00  1.0165039108814958e-01 1.1030671195509656e-02 0.0000000000000000e+00  1.0161186212987872e-01 5.5382780204199572e-03 0.0000000000000000e+00  1.0159780253407528e-01 6.6206790870543218e-05 0.0000000000000000e+00  1.0160795867650022e-01 -5.4060943966242909e-03 0.0000000000000000e+00  1.0164316758528867e-01 -1.0898539880189113e-02 0.0000000000000000e+00  1.1018574337446252e-01 1.1184091843977955e-02 0.0000000000000000e+00  1.1015755125043231e-01 5.6161797075246801e-03 0.0000000000000000e+00  1.1014686902145696e-01 7.0377522447186906e-05 0.0000000000000000e+00  1.1015392776821711e-01 -5.4756966700740825e-03 0.0000000000000000e+00  1.1017962475181159e-01 -1.1043175922536386e-02 0.0000000000000000e+00  1.1882310798539684e-01 1.1292533351802716e-02 0.0000000000000000e+00  1.1880213741799546e-01 5.6732633512669621e-03 0.0000000000000000e+00  1.1879335984496524e-01 7.4906052028845537e-05 0.0000000000000000e+00  1.1879755933599123e-01 -5.5239093831857093e-03 0.0000000000000000e+00  1.1881513179797069e-01 -1.1143379820000078e-02 0.0000000000000000e+00  1.2751478016241996e-01 1.1358660928704653e-02 0.0000000000000000e+00  1.2750289812851412e-01 5.7099420972021647e-03 0.0000000000000000e+00  1.2749772238521012e-01 7.8953960595840313e-05 0.0000000000000000e+00  1.2750033634914634e-01 -5.5526266789267462e-03 0.0000000000000000e+00  1.2750981466599431e-01 -1.1201209378572628e-02 0.0000000000000000e+00  1.3623442007047845e-01 1.1391112738195821e-02 0.0000000000000000e+00  1.3622688312437928e-01 5.7306699906531219e-03 0.0000000000000000e+00  1.3622246968223961e-01 8.1959589765825415e-05 0.0000000000000000e+00  1.3622268363897580e-01 -5.5665628722164368e-03 0.0000000000000000e+00  1.3622689534362228e-01 -1.1225615973658527e-02 0.0000000000000000e+00  1.4495360562850687e-01 1.1402579135618388e-02 0.0000000000000000e+00  1.4494932885568484e-01 5.7408826481867405e-03 0.0000000000000000e+00  1.4494622509357097e-01 8.5685386440320096e-05 0.0000000000000000e+00  1.4494531146694456e-01 -5.5700767549332810e-03 0.0000000000000000e+00  1.4494657056865384e-01 -1.1231780051252983e-02 0.0000000000000000e+00  1.5366573410186726e-01 1.1405473105818088e-02 0.0000000000000000e+00  1.5366334274682703e-01 5.7451994234845802e-03 0.0000000000000000e+00  1.5366177736666331e-01 8.8454446875478994e-05 0.0000000000000000e+00  1.5366108936255335e-01 -5.5688456886017618e-03 0.0000000000000000e+00  1.5366083003624575e-01 -1.1229252602438785e-02 0.0000000000000000e+00  1.6237694710200110e-01 1.1407815913106805e-02 0.0000000000000000e+00  1.6237321464264426e-01 5.7476945196011349e-03 0.0000000000000000e+00  1.6237177313325615e-01 9.0624825600813143e-05 0.0000000000000000e+00  1.6237090149533265e-01 -5.5668592538403042e-03 0.0000000000000000e+00  1.6237196660375039e-01 -1.1225390887039402e-02 0.0000000000000000e+00  1.7108261489109924e-01 1.1410497618742669e-02 0.0000000000000000e+00  1.7108042027479170e-01 5.7513105231336206e-03 0.0000000000000000e+00  1.7107862719465189e-01 9.3627509531658406e-05 0.0000000000000000e+00  1.7107792820913648e-01 -5.5642867911416625e-03 0.0000000000000000e+00  1.7107805098354328e-01 -1.1224209792080329e-02 0.0000000000000000e+00  </DataArray> 
</PointData> 
</Piece>
</UnstructuredGrid>
</VTKFile>