<?xml version="1.0"?>
<VTKFile type="UnstructuredGrid"  version="0.1"  >
<UnstructuredGrid>
<Piece  NumberOfPoints="135" NumberOfCells="208">
<Points>
<DataArray  type="Float64"  NumberOfComponents="3"  format="ascii">-0.05 0 0  -0.025 0 0  0 0 0  0.02500000000000001 0 0  0.05 0 0  -0.05 0.03846153846153846 0  -0.025 0.03846153846153846 0  0 0.03846153846153846 0  0.02500000000000001 0.03846153846153846 0  0.05 0.03846153846153846 0  -0.05 0.07692307692307693 0  -0.025 0.07692307692307693 0  0 0.07692307692307693 0  0.02500000000000001 0.07692307692307693 0  0.05 0.07692307692307693 0  -0.05 0.1153846153846154 0  -0.025 0.1153846153846154 0  0 0.1153846153846154 0  0.02500000000000001 0.1153846153846154 0  0.05 0.1153846153846154 0  -0.05 0.1538461538461539 0  -0.025 0.1538461538461539 0  0 0.1538461538461539 0  0.02500000000000001 0.1538461538461539 0  0.05 0.1538461538461539 0  -0.05 0.1923076923076923 0  -0.025 0.1923076923076923 0  0 0.1923076923076923 0  0.02500000000000001 0.1923076923076923 0  0.05 0.1923076923076923 0  -0.05 0.2307692307692308 0  -0.025 0.2307692307692308 0  0 0.2307692307692308 0  0.02500000000000001 0.2307692307692308 0  0.05 0.2307692307692308 0  -0.05 0.2692307692307692 0  -0.025 0.2692307692307692 0  0 0.2692307692307692 0  0.02500000000000001 0.2692307692307692 0  0.05 0.2692307692307692 0  -0.05 0.3076923076923077 0  -0.025 0.3076923076923077 0  0 0.3076923076923077 0  0.02500000000000001 0.3076923076923077 0  0.05 0.3076923076923077 0  -0.05 0.3461538461538461 0  -0.025 0.3461538461538461 0  0 0.3461538461538461 0  0.02500000000000001 0.3461538461538461 0  0.05 0.3461538461538461 0  -0.05 0.3846153846153846 0  -0.025 0.3846153846153846 0  0 0.3846153846153846 0  0.02500000000000001 0.3846153846153846 0  0.05 0.3846153846153846 0  -0.05 0.4230769230769231 0  -0.025 0.4230769230769231 0  0 0.4230769230769231 0  0.02500000000000001 0.4230769230769231 0  0.05 0.4230769230769231 0  -0.05 0.4615384615384616 0  -0.025 0.4615384615384616 0  0 0.4615384615384616 0  0.02500000000000001 0.4615384615384616 0  0.05 0.4615384615384616 0  -0.05 0.5 0  -0.025 0.5 0  0 0.5 0  0.02500000000000001 0.5 0  0.05 0.5 0  -0.05 0.5384615384615384 0  -0.025 0.5384615384615384 0  0 0.5384615384615384 0  0.02500000000000001 0.5384615384615384 0  0.05 0.5384615384615384 0  -0.05 0.5769230769230769 0  -0.025 0.5769230769230769 0  0 0.5769230769230769 0  0.02500000000000001 0.5769230769230769 0  0.05 0.5769230769230769 0  -0.05 0.6153846153846154 0  -0.025 0.6153846153846154 0  0 0.6153846153846154 0  0.02500000000000001 0.6153846153846154 0  0.05 0.6153846153846154 0  -0.05 0.6538461538461539 0  -0.025 0.6538461538461539 0  0 0.6538461538461539 0  0.02500000000000001 0.6538461538461539 0  0.05 0.6538461538461539 0  -0.05 0.6923076923076923 0  -0.025 0.6923076923076923 0  0 0.6923076923076923 0  0.02500000000000001 0.6923076923076923 0  0.05 0.6923076923076923 0  -0.05 0.7307692307692307 0  -0.025 0.7307692307692307 0  0 0.7307692307692307 0  0.02500000000000001 0.7307692307692307 0  0.05 0.7307692307692307 0  -0.05 0.7692307692307693 0  -0.025 0.7692307692307693 0  0 0.7692307692307693 0  0.02500000000000001 0.7692307692307693 0  0.05 0.7692307692307693 0  -0.05 0.8076923076923077 0  -0.025 0.8076923076923077 0  0 0.8076923076923077 0  0.02500000000000001 0.8076923076923077 0  0.05 0.8076923076923077 0  -0.05 0.8461538461538461 0  -0.025 0.8461538461538461 0  0 0.8461538461538461 0  0.02500000000000001 0.8461538461538461 0  0.05 0.8461538461538461 0  -0.05 0.8846153846153846 0  -0.025 0.8846153846153846 0  0 0.8846153846153846 0  0.02500000000000001 0.8846153846153846 0  0.05 0.8846153846153846 0  -0.05 0.9230769230769231 0  -0.025 0.9230769230769231 0  0 0.9230769230769231 0  0.02500000000000001 0.9230769230769231 0  0.05 0.9230769230769231 0  -0.05 0.9615384615384616 0  -0.025 0.9615384615384616 0  0 0.9615384615384616 0  0.02500000000000001 0.9615384615384616 0  0.05 0.9615384615384616 0  -0.05 1 0  -0.025 1 0  0 1 0  0.02500000000000001 1 0  0.05 1 0  </DataArray>
</Points>
<Cells>
<DataArray  type="UInt32"  Name="connectivity"  format="ascii">0 1 6  0 5 6  1 2 7  1 6 7  2 3 8  2 7 8  3 4 9  3 8 9  5 6 11  5 10 11  6 7 12  6 11 12  7 8 13  7 12 13  8 9 14  8 13 14  10 11 16  10 15 16  11 12 17  11 16 17  12 13 18  12 17 18  13 14 19  13 18 19  15 16 21  15 20 21  16 17 22  16 21 22  17 18 23  17 22 23  18 19 24  18 23 24  20 21 26  20 25 26  21 22 27  21 26 27  22 23 28  22 27 28  23 24 29  23 28 29  25 26 31  25 30 31  26 27 32  26 31 32  27 28 33  27 32 33  28 29 34  28 33 34  30 31 36  30 35 36  31 32 37  31 36 37  32 33 38  32 37 38  33 34 39  33 38 39  35 36 41  35 40 41  36 37 42  36 41 42  37 38 43  37 42 43  38 39 44  38 43 44  40 41 46  40 45 46  41 42 47  41 46 47  42 43 48  42 47 48  43 44 49  43 48 49  45 46 51  45 50 51  46 47 52  46 51 52  47 48 53  47 52 53  48 49 54  48 53 54  50 51 56  50 55 56  51 52 57  51 56 57  52 53 58  52 57 58  53 54 59  53 58 59  55 56 61  55 60 61  56 57 62  56 61 62  57 58 63  57 62 63  58 59 64  58 63 64  60 61 66  60 65 66  61 62 67  61 66 67  62 63 68  62 67 68  63 64 69  63 68 69  65 66 71  65 70 71  66 67 72  66 71 72  67 68 73  67 72 73  68 69 74  68 73 74  70 71 76  70 75 76  71 72 77  71 76 77  72 73 78  72 77 78  73 74 79  73 78 79  75 76 81  75 80 81  76 77 82  76 81 82  77 78 83  77 82 83  78 79 84  78 83 84  80 81 86  80 85 86  81 82 87  81 86 87  82 83 88  82 87 88  83 84 89  83 88 89  85 86 91  85 90 91  86 87 92  86 91 92  87 88 93  87 92 93  88 89 94  88 93 94  90 91 96  90 95 96  91 92 97  91 96 97  92 93 98  92 97 98  93 94 99  93 98 99  95 96 101  95 100 101  96 97 102  96 101 102  97 98 103  97 102 103  98 99 104  98 103 104  100 101 106  100 105 106  101 102 107  101 106 107  102 103 108  102 107 108  103 104 109  103 108 109  105 106 111  105 110 111  106 107 112  106 111 112  107 108 113  107 112 113  108 109 114  108 113 114  110 111 116  110 115 116  111 112 117  111 116 117  112 113 118  112 117 118  113 114 119  113 118 119  115 116 121  115 120 121  116 117 122  116 121 122  117 118 123  117 122 123  118 119 124  118 123 124  120 121 126  120 125 126  121 122 127  121 126 127  122 123 128  122 127 128  123 124 129  123 128 129  125 126 131  125 130 131  126 127 132  126 131 132  127 128 133  127 132 133  128 129 134  128 133 134  </DataArray>
<DataArray  type="UInt32"  Name="offsets"  format="ascii">3 6 9 12 15 18 21 24 27 30 33 36 39 42 45 48 51 54 57 60 63 66 69 72 75 78 81 84 87 90 93 96 99 102 105 108 111 114 117 120 123 126 129 132 135 138 141 144 147 150 153 156 159 162 165 168 171 174 177 180 183 186 189 192 195 198 201 204 207 210 213 216 219 222 225 228 231 234 237 240 243 246 249 252 255 258 261 264 267 270 273 276 279 282 285 288 291 294 297 300 303 306 309 312 315 318 321 324 327 330 333 336 339 342 345 348 351 354 357 360 363 366 369 372 375 378 381 384 387 390 393 396 399 402 405 408 411 414 417 420 423 426 429 432 435 438 441 444 447 450 453 456 459 462 465 468 471 474 477 480 483 486 489 492 495 498 501 504 507 510 513 516 519 522 525 528 531 534 537 540 543 546 549 552 555 558 561 564 567 570 573 576 579 582 585 588 591 594 597 600 603 606 609 612 615 618 621 624 </DataArray>
<DataArray  type="UInt8"  Name="types"  format="ascii">5 5 5 5 5 5 5 5 5 5 5 5 5 5 5 5 5 5 5 5 5 5 5 5 5 5 5 5 5 5 5 5 5 5 5 5 5 5 5 5 5 5 5 5 5 5 5 5 5 5 5 5 5 5 5 5 5 5 5 5 5 5 5 5 5 5 5 5 5 5 5 5 5 5 5 5 5 5 5 5 5 5 5 5 5 5 5 5 5 5 5 5 5 5 5 5 5 5 5 5 5 5 5 5 5 5 5 5 5 5 5 5 5 5 5 5 5 5 5 5 5 5 5 5 5 5 5 5 5 5 5 5 5 5 5 5 5 5 5 5 5 5 5 5 5 5 5 5 5 5 5 5 5 5 5 5 5 5 5 5 5 5 5 5 5 5 5 5 5 5 5 5 5 5 5 5 5 5 5 5 5 5 5 5 5 5 5 5 5 5 5 5 5 5 5 5 5 5 5 5 5 5 5 5 5 5 5 5 </DataArray>
</Cells>
<PointData  Vectors="Displacement"> 
<DataArray  type="Float64"  Name="Displacement"  NumberOfComponents="3" format="ascii">-4.6025037815135403e-16 1.0641562515011437e-17 0.0000000000000000e+00  0.0000000000000000e+00 0.0000000000000000e+00 0.0000000000000000e+00  0.0000000000000000e+00 0.0000000000000000e+00 0.0000000000000000e+00  -5.8303281004994711e-17 1.7116420133867135e-18 0.0000000000000000e+00  1.7490984301498415e-16 -5.1349260401601406e-18 0.0000000000000000e+00  8.5449070442916220e-04 1.2522476616434377e-03 0.0000000000000000e+00  5.9593459950165047e-04 5.9480446984924533e-04 0.0000000000000000e+00  4.9874264729249048e-04 4.9415112172197961e-06 0.0000000000000000e+00  5.7814586775663604e-04 -5.8019775594583324e-04 0.0000000000000000e+00  8.3994409690682471e-04 -1.2541250866843464e-03 0.0000000000000000e+00  2.3665643126371348e-03 2.4131643523690421e-03 0.0000000000000000e+00  2.1309293018245169e-03 1.1851596807107402e-03 0.0000000000000000e+00  2.0509942894076463e-03 9.1665581359012472e-06 0.0000000000000000e+00  2.1293198153481386e-03 -1.1695910681482032e-03 0.0000000000000000e+00  2.3632135711682180e-03 -2.4038310054125250e-03 0.0000000000000000e+00  4.7405352101078093e-03 3.4821452964218097e-03 0.0000000000000000e+00  4.5275640016616886e-03 1.7202792951383208e-03 0.0000000000000000e+00  4.4566990359782678e-03 1.0598416120576985e-05 0.0000000000000000e+00  4.5279555210293570e-03 -1.7006545922276727e-03 0.0000000000000000e+00  4.7402226162831769e-03 -3.4641383691229517e-03 0.0000000000000000e+00  7.8934633058354922e-03 4.4467002663742981e-03 0.0000000000000000e+00  7.7008324914433967e-03 2.2041068113432486e-03 0.0000000000000000e+00  7.6357179513242114e-03 1.2189183852642970e-05 0.0000000000000000e+00  7.6991633243690648e-03 -2.1799369468990608e-03 0.0000000000000000e+00  7.8908337399158247e-03 -4.4215781086836521e-03 0.0000000000000000e+00  1.1738562650721865e-02 5.3121251384992919e-03 0.0000000000000000e+00  1.1565612122110538e-02 2.6409814243577019e-03 0.0000000000000000e+00  1.1506823116421748e-02 1.5270612736722910e-05 0.0000000000000000e+00  1.1564057809653337e-02 -2.6113178245506302e-03 0.0000000000000000e+00  1.1736764937546537e-02 -5.2840682839483512e-03 0.0000000000000000e+00  1.6203709254761868e-02 6.0893611588037902e-03 0.0000000000000000e+00  1.6046941636020301e-02 3.0327034444114546e-03 0.0000000000000000e+00  1.5994235823572792e-02 1.5987691397938594e-05 0.0000000000000000e+00  1.6046997721450174e-02 -3.0013244216929727e-03 0.0000000000000000e+00  1.6203164081094696e-02 -6.0580977688374296e-03 0.0000000000000000e+00  2.1222132218546016e-02 6.7908152564760673e-03 0.0000000000000000e+00  2.1081439871257119e-02 3.3862658610881724e-03 0.0000000000000000e+00  2.1033459033242538e-02 1.6359145437427581e-05 0.0000000000000000e+00  2.1080652494351915e-02 -3.3532989766803067e-03 0.0000000000000000e+00  2.1221563663687808e-02 -6.7577725399303405e-03 0.0000000000000000e+00  2.6749512322126703e-02 7.4265609338826678e-03 0.0000000000000000e+00  2.6620425034690219e-02 3.7069292663906620e-03 0.0000000000000000e+00  2.6576579005858754e-02 1.8221739724124901e-05 0.0000000000000000e+00  2.6619486850087866e-02 -3.6718506241381200e-03 0.0000000000000000e+00  2.6747452891951337e-02 -7.3931093524089728e-03 0.0000000000000000e+00  3.2732229904190766e-02 8.0045218355098320e-03 0.0000000000000000e+00  3.2616113257655642e-02 3.9972310141010090e-03 0.0000000000000000e+00  3.2578218996467026e-02 1.8434278013912229e-05 0.0000000000000000e+00  3.2617908577720942e-02 -3.9604873322651828e-03 0.0000000000000000e+00  3.2733986150611925e-02 -7.9687923100787064e-03 0.0000000000000000e+00  3.9137767512824322e-02 8.5310886552109038e-03 0.0000000000000000e+00  3.9031797973049481e-02 4.2605737125022648e-03 0.0000000000000000e+00  3.8996545009462959e-02 1.8530491763642259e-05 0.0000000000000000e+00  3.9032486028696418e-02 -4.2231119640042530e-03 0.0000000000000000e+00  3.9138100538572841e-02 -8.4923057267329884e-03 0.0000000000000000e+00  4.5925743078304292e-02 9.0058904434130692e-03 0.0000000000000000e+00  4.5830062076714535e-02 4.4995782570905586e-03 0.0000000000000000e+00  4.5797605139987263e-02 1.9714318480436510e-05 0.0000000000000000e+00  4.5829312451091606e-02 -4.4603208411684346e-03 0.0000000000000000e+00  4.5924406635077492e-02 -8.9666711768543860e-03 0.0000000000000000e+00  5.3057657724189931e-02 9.4300773407365746e-03 0.0000000000000000e+00  5.2974223034227892e-02 4.7115497657199117e-03 0.0000000000000000e+00  5.2946438115968185e-02 2.0676564061187054e-05 0.0000000000000000e+00  5.2974192560745287e-02 -4.6710091764190958e-03 0.0000000000000000e+00  5.3057603004339600e-02 -9.3909797087422010e-03 0.0000000000000000e+00  6.0501696056324640e-02 9.7997422695806601e-03 0.0000000000000000e+00  6.0429166937199158e-02 4.8952696525997284e-03 0.0000000000000000e+00  6.0405293353653106e-02 2.0587284556568766e-05 0.0000000000000000e+00  6.0429665280437937e-02 -4.8544421121913591e-03 0.0000000000000000e+00  6.0501749031213109e-02 -9.7585254436806067e-03 0.0000000000000000e+00  6.8204366178349449e-02 1.0108965093534258e-02 0.0000000000000000e+00  6.8144998046599181e-02 5.0506055939860371e-03 0.0000000000000000e+00  6.8124827577268843e-02 2.1609579098899973e-05 0.0000000000000000e+00  6.8144711757136087e-02 -5.0075102078557159e-03 0.0000000000000000e+00  6.8203712438435191e-02 -1.0065863161997035e-02 0.0000000000000000e+00  7.6119991249929644e-02 1.0360430396267575e-02 0.0000000000000000e+00  7.6070464144024727e-02 5.1789112557600620e-03 0.0000000000000000e+00  7.6053288717503900e-02 2.2869341522738977e-05 0.0000000000000000e+00  7.6070076329576158e-02 -5.1333166836394833e-03 0.0000000000000000e+00  7.6118588103721907e-02 -1.0314748672602852e-02 0.0000000000000000e+00  8.4197244134619986e-02 1.0562095403585200e-02 0.0000000000000000e+00  8.4157595346861264e-02 5.2825306532697479e-03 0.0000000000000000e+00  8.4144299740198630e-02 2.3585867207877234e-05 0.0000000000000000e+00  8.4157777297653336e-02 -5.2345522860949741e-03 0.0000000000000000e+00  8.4196221356592021e-02 -1.0512736793659218e-02 0.0000000000000000e+00  9.2404117518936527e-02 1.0723952156368247e-02 0.0000000000000000e+00  9.2371668256068157e-02 5.3661659075377420e-03 0.0000000000000000e+00  9.2359588880525867e-02 2.4984838071051877e-05 0.0000000000000000e+00  9.2369488484043416e-02 -5.3148699358960298e-03 0.0000000000000000e+00  9.2400142032367044e-02 -1.0670687027180163e-02 0.0000000000000000e+00  1.0071231102658591e-01 1.0853417112415034e-02 0.0000000000000000e+00  1.0068479107930997e-01 5.4343042988627610e-03 0.0000000000000000e+00  1.0067494347629828e-01 2.7464175165134333e-05 0.0000000000000000e+00  1.0068341340490973e-01 -5.3791344180195832e-03 0.0000000000000000e+00  1.0070894106512618e-01 -1.0798061758097464e-02 0.0000000000000000e+00  1.0910066733122648e-01 1.0962968451047283e-02 0.0000000000000000e+00  1.0907838504615927e-01 5.4909338084280579e-03 0.0000000000000000e+00  1.0907088611052054e-01 2.8970495783758362e-05 0.0000000000000000e+00  1.0907830478491942e-01 -5.4321987648516491e-03 0.0000000000000000e+00  1.0909912324317252e-01 -1.0903083371614402e-02 0.0000000000000000e+00  1.1756830313252346e-01 1.1056673456051512e-02 0.0000000000000000e+00  1.1754792227385602e-01 5.5387425315545193e-03 0.0000000000000000e+00  1.1754033727904077e-01 3.0910175082496353e-05 0.0000000000000000e+00  1.1754570760594865e-01 -5.4760794177610723e-03 0.0000000000000000e+00  1.1756360487886663e-01 -1.0991426027628488e-02 0.0000000000000000e+00  1.2609446584311984e-01 1.1131988043993688e-02 0.0000000000000000e+00  1.2607940124270522e-01 5.5780846622871796e-03 0.0000000000000000e+00  1.2607400381227826e-01 3.3557944958582239e-05 0.0000000000000000e+00  1.2607795988423576e-01 -5.5102299978830767e-03 0.0000000000000000e+00  1.2609140759440157e-01 -1.1064215543948219e-02 0.0000000000000000e+00  1.3467332222124562e-01 1.1189093540602300e-02 0.0000000000000000e+00  1.3466223307981001e-01 5.6065236364368342e-03 0.0000000000000000e+00  1.3465851844828755e-01 3.4830449621224377e-05 0.0000000000000000e+00  1.3466195205959655e-01 -5.5358148412059747e-03 0.0000000000000000e+00  1.3467176654893370e-01 -1.1116603734019978e-02 0.0000000000000000e+00  1.4328668427645175e-01 1.1224566602550751e-02 0.0000000000000000e+00  1.4327894837668367e-01 5.6253428639970729e-03 0.0000000000000000e+00  1.4327515227034837e-01 3.6207846418102234e-05 0.0000000000000000e+00  1.4327629169920680e-01 -5.5526671322179665e-03 0.0000000000000000e+00  1.4328263115820980e-01 -1.1148964640451429e-02 0.0000000000000000e+00  1.5191233553161582e-01 1.1242932448523570e-02 0.0000000000000000e+00  1.5190780905555332e-01 5.6373496270080642e-03 0.0000000000000000e+00  1.5190540433084057e-01 3.8498871986761087e-05 0.0000000000000000e+00  1.5190586122307051e-01 -5.5607941174939113e-03 0.0000000000000000e+00  1.5190863773054564e-01 -1.1166910095073776e-02 0.0000000000000000e+00  1.6054482939788486e-01 1.1252799577395035e-02 0.0000000000000000e+00  1.6054035920285206e-01 5.6436370428273961e-03 0.0000000000000000e+00  1.6053894661974291e-01 3.9247899588272694e-05 0.0000000000000000e+00  1.6054015314648337e-01 -5.5645268151009253e-03 0.0000000000000000e+00  1.6054303504873882e-01 -1.1171074113226686e-02 0.0000000000000000e+00  1.6917271647188975e-01 1.1256576000468956e-02 0.0000000000000000e+00  1.6917057350014594e-01 5.6480273742292820e-03 0.0000000000000000e+00  1.6916848989964364e-01 4.1378046929541575e-05 0.0000000000000000e+00  1.6916767822014037e-01 -5.5645899697045623e-03 0.0000000000000000e+00  1.6916734140167447e-01 -1.1170414809487201e-02 0.0000000000000000e+00  </DataArray> 
</PointData> 
</Piece>
</UnstructuredGrid>
</VTKFile>