<?xml version="1.0"?>
<VTKFile type="UnstructuredGrid"  version="0.1"  >
<UnstructuredGrid>
<Piece  NumberOfPoints="135" NumberOfCells="208">
<Points>
<DataArray  type="Float64"  NumberOfComponents="3"  format="ascii">-0.05 0 0  -0.025 0 0  0 0 0  0.02500000000000001 0 0  0.05 0 0  -0.05 0.03846153846153846 0  -0.025 0.03846153846153846 0  0 0.03846153846153846 0  0.02500000000000001 0.03846153846153846 0  0.05 0.03846153846153846 0  -0.05 0.07692307692307693 0  -0.025 0.07692307692307693 0  0 0.07692307692307693 0  0.02500000000000001 0.07692307692307693 0  0.05 0.07692307692307693 0  -0.05 0.1153846153846154 0  -0.025 0.1153846153846154 0  0 0.1153846153846154 0  0.02500000000000001 0.1153846153846154 0  0.05 0.1153846153846154 0  -0.05 0.1538461538461539 0  -0.025 0.1538461538461539 0  0 0.1538461538461539 0  0.02500000000000001 0.1538461538461539 0  0.05 0.1538461538461539 0  -0.05 0.1923076923076923 0  -0.025 0.1923076923076923 0  0 0.1923076923076923 0  0.02500000000000001 0.1923076923076923 0  0.05 0.1923076923076923 0  -0.05 0.2307692307692308 0  -0.025 0.2307692307692308 0  0 0.2307692307692308 0  0.02500000000000001 0.2307692307692308 0  0.05 0.2307692307692308 0  -0.05 0.2692307692307692 0  -0.025 0.2692307692307692 0  0 0.2692307692307692 0  0.02500000000000001 0.2692307692307692 0  0.05 0.2692307692307692 0  -0.05 0.3076923076923077 0  -0.025 0.3076923076923077 0  0 0.3076923076923077 0  0.02500000000000001 0.3076923076923077 0  0.05 0.3076923076923077 0  -0.05 0.3461538461538461 0  -0.025 0.3461538461538461 0  0 0.3461538461538461 0  0.02500000000000001 0.3461538461538461 0  0.05 0.3461538461538461 0  -0.05 0.3846153846153846 0  -0.025 0.3846153846153846 0  0 0.3846153846153846 0  0.02500000000000001 0.3846153846153846 0  0.05 0.3846153846153846 0  -0.05 0.4230769230769231 0  -0.025 0.4230769230769231 0  0 0.4230769230769231 0  0.02500000000000001 0.4230769230769231 0  0.05 0.4230769230769231 0  -0.05 0.4615384615384616 0  -0.025 0.4615384615384616 0  0 0.4615384615384616 0  0.02500000000000001 0.4615384615384616 0  0.05 0.4615384615384616 0  -0.05 0.5 0  -0.025 0.5 0  0 0.5 0  0.02500000000000001 0.5 0  0.05 0.5 0  -0.05 0.5384615384615384 0  -0.025 0.5384615384615384 0  0 0.5384615384615384 0  0.02500000000000001 0.5384615384615384 0  0.05 0.5384615384615384 0  -0.05 0.5769230769230769 0  -0.025 0.5769230769230769 0  0 0.5769230769230769 0  0.02500000000000001 0.5769230769230769 0  0.05 0.5769230769230769 0  -0.05 0.6153846153846154 0  -0.025 0.6153846153846154 0  0 0.6153846153846154 0  0.02500000000000001 0.6153846153846154 0  0.05 0.6153846153846154 0  -0.05 0.6538461538461539 0  -0.025 0.6538461538461539 0  0 0.6538461538461539 0  0.02500000000000001 0.6538461538461539 0  0.05 0.6538461538461539 0  -0.05 0.6923076923076923 0  -0.025 0.6923076923076923 0  0 0.6923076923076923 0  0.02500000000000001 0.6923076923076923 0  0.05 0.6923076923076923 0  -0.05 0.7307692307692307 0  -0.025 0.7307692307692307 0  0 0.7307692307692307 0  0.02500000000000001 0.7307692307692307 0  0.05 0.7307692307692307 0  -0.05 0.7692307692307693 0  -0.025 0.7692307692307693 0  0 0.7692307692307693 0  0.02500000000000001 0.7692307692307693 0  0.05 0.7692307692307693 0  -0.05 0.8076923076923077 0  -0.025 0.8076923076923077 0  0 0.8076923076923077 0  0.02500000000000001 0.8076923076923077 0  0.05 0.8076923076923077 0  -0.05 0.8461538461538461 0  -0.025 0.8461538461538461 0  0 0.8461538461538461 0  0.02500000000000001 0.8461538461538461 0  0.05 0.8461538461538461 0  -0.05 0.8846153846153846 0  -0.025 0.8846153846153846 0  0 0.8846153846153846 0  0.02500000000000001 0.8846153846153846 0  0.05 0.8846153846153846 0  -0.05 0.9230769230769231 0  -0.025 0.9230769230769231 0  0 0.9230769230769231 0  0.02500000000000001 0.9230769230769231 0  0.05 0.9230769230769231 0  -0.05 0.9615384615384616 0  -0.025 0.9615384615384616 0  0 0.9615384615384616 0  0.02500000000000001 0.9615384615384616 0  0.05 0.9615384615384616 0  -0.05 1 0  -0.025 1 0  0 1 0  0.02500000000000001 1 0  0.05 1 0  </DataArray>
</Points>
<Cells>
<DataArray  type="UInt32"  Name="connectivity"  format="ascii">0 1 6  0 5 6  1 2 7  1 6 7  2 3 8  2 7 8  3 4 9  3 8 9  5 6 11  5 10 11  6 7 12  6 11 12  7 8 13  7 12 13  8 9 14  8 13 14  10 11 16  10 15 16  11 12 17  11 16 17  12 13 18  12 17 18  13 14 19  13 18 19  15 16 21  15 20 21  16 17 22  16 21 22  17 18 23  17 22 23  18 19 24  18 23 24  20 21 26  20 25 26  21 22 27  21 26 27  22 23 28  22 27 28  23 24 29  23 28 29  25 26 31  25 30 31  26 27 32  26 31 32  27 28 33  27 32 33  28 29 34  28 33 34  30 31 36  30 35 36  31 32 37  31 36 37  32 33 38  32 37 38  33 34 39  33 38 39  35 36 41  35 40 41  36 37 42  36 41 42  37 38 43  37 42 43  38 39 44  38 43 44  40 41 46  40 45 46  41 42 47  41 46 47  42 43 48  42 47 48  43 44 49  43 48 49  45 46 51  45 50 51  46 47 52  46 51 52  47 48 53  47 52 53  48 49 54  48 53 54  50 51 56  50 55 56  51 52 57  51 56 57  52 53 58  52 57 58  53 54 59  53 58 59  55 56 61  55 60 61  56 57 62  56 61 62  57 58 63  57 62 63  58 59 64  58 63 64  60 61 66  60 65 66  61 62 67  61 66 67  62 63 68  62 67 68  63 64 69  63 68 69  65 66 71  65 70 71  66 67 72  66 71 72  67 68 73  67 72 73  68 69 74  68 73 74  70 71 76  70 75 76  71 72 77  71 76 77  72 73 78  72 77 78  73 74 79  73 78 79  75 76 81  75 80 81  76 77 82  76 81 82  77 78 83  77 82 83  78 79 84  78 83 84  80 81 86  80 85 86  81 82 87  81 86 87  82 83 88  82 87 88  83 84 89  83 88 89  85 86 91  85 90 91  86 87 92  86 91 92  87 88 93  87 92 93  88 89 94  88 93 94  90 91 96  90 95 96  91 92 97  91 96 97  92 93 98  92 97 98  93 94 99  93 98 99  95 96 101  95 100 101  96 97 102  96 101 102  97 98 103  97 102 103  98 99 104  98 103 104  100 101 106  100 105 106  101 102 107  101 106 107  102 103 108  102 107 108  103 104 109  103 108 109  105 106 111  105 110 111  106 107 112  106 111 112  107 108 113  107 112 113  108 109 114  108 113 114  110 111 116  110 115 116  111 112 117  111 116 117  112 113 118  112 117 118  113 114 119  113 118 119  115 116 121  115 120 121  116 117 122  116 121 122  117 118 123  117 122 123  118 119 124  118 123 124  120 121 126  120 125 126  121 122 127  121 126 127  122 123 128  122 127 128  123 124 129  123 128 129  125 126 131  125 130 131  126 127 132  126 131 132  127 128 133  127 132 133  128 129 134  128 133 134  </DataArray>
<DataArray  type="UInt32"  Name="offsets"  format="ascii">3 6 9 12 15 18 21 24 27 30 33 36 39 42 45 48 51 54 57 60 63 66 69 72 75 78 81 84 87 90 93 96 99 102 105 108 111 114 117 120 123 126 129 132 135 138 141 144 147 150 153 156 159 162 165 168 171 174 177 180 183 186 189 192 195 198 201 204 207 210 213 216 219 222 225 228 231 234 237 240 243 246 249 252 255 258 261 264 267 270 273 276 279 282 285 288 291 294 297 300 303 306 309 312 315 318 321 324 327 330 333 336 339 342 345 348 351 354 357 360 363 366 369 372 375 378 381 384 387 390 393 396 399 402 405 408 411 414 417 420 423 426 429 432 435 438 441 444 447 450 453 456 459 462 465 468 471 474 477 480 483 486 489 492 495 498 501 504 507 510 513 516 519 522 525 528 531 534 537 540 543 546 549 552 555 558 561 564 567 570 573 576 579 582 585 588 591 594 597 600 603 606 609 612 615 618 621 624 </DataArray>
<DataArray  type="UInt8"  Name="types"  format="ascii">5 5 5 5 5 5 5 5 5 5 5 5 5 5 5 5 5 5 5 5 5 5 5 5 5 5 5 5 5 5 5 5 5 5 5 5 5 5 5 5 5 5 5 5 5 5 5 5 5 5 5 5 5 5 5 5 5 5 5 5 5 5 5 5 5 5 5 5 5 5 5 5 5 5 5 5 5 5 5 5 5 5 5 5 5 5 5 5 5 5 5 5 5 5 5 5 5 5 5 5 5 5 5 5 5 5 5 5 5 5 5 5 5 5 5 5 5 5 5 5 5 5 5 5 5 5 5 5 5 5 5 5 5 5 5 5 5 5 5 5 5 5 5 5 5 5 5 5 5 5 5 5 5 5 5 5 5 5 5 5 5 5 5 5 5 5 5 5 5 5 5 5 5 5 5 5 5 5 5 5 5 5 5 5 5 5 5 5 5 5 5 5 5 5 5 5 5 5 5 5 5 5 5 5 5 5 5 5 </DataArray>
</Cells>
<PointData  Vectors="Displacement"> 
<DataArray  type="Float64"  Name="Displacement"  NumberOfComponents="3" format="ascii">-4.6810458891926008e-16 3.0530450174632017e-18 0.0000000000000000e+00  0.0000000000000000e+00 0.0000000000000000e+00 0.0000000000000000e+00  0.0000000000000000e+00 0.0000000000000000e+00 0.0000000000000000e+00  -5.5418835703132355e-17 8.5948841576519629e-19 0.0000000000000000e+00  1.6625650710939708e-16 -2.5784652472955890e-18 0.0000000000000000e+00  1.4831893033481861e-04 1.9069147820702020e-04 0.0000000000000000e+00  1.0975073769079781e-04 8.8288977879300110e-05 0.0000000000000000e+00  9.4923712569710498e-05 3.3827097573357028e-06 0.0000000000000000e+00  1.0510795701484771e-04 -8.1337179394891422e-05 0.0000000000000000e+00  1.4175788786753997e-04 -1.8540940707463600e-04 0.0000000000000000e+00  3.8146049205194479e-04 3.4974773970427475e-04 0.0000000000000000e+00  3.4981431243583848e-04 1.7154283686503298e-04 0.0000000000000000e+00  3.3842300906721033e-04 7.1899989759542131e-06 0.0000000000000000e+00  3.4798390394988804e-04 -1.5787246804030888e-04 0.0000000000000000e+00  3.7784106790706237e-04 -3.3813440926926710e-04 0.0000000000000000e+00  7.2563646355603805e-04 4.8352969392575590e-04 0.0000000000000000e+00  6.9927505959145998e-04 2.3966474468842608e-04 0.0000000000000000e+00  6.9012356605008848e-04 1.0133072056349971e-05 0.0000000000000000e+00  6.9838228274995658e-04 -2.2052207612353785e-04 0.0000000000000000e+00  7.2281525365705762e-04 -4.6516820029141671e-04 0.0000000000000000e+00  1.1596465301024711e-03 5.9129244407566805e-04 0.0000000000000000e+00  1.1378815446215040e-03 2.9577521191424870e-04 0.0000000000000000e+00  1.1299009693738935e-03 1.3171511045656305e-05 0.0000000000000000e+00  1.1365272239985326e-03 -2.6988852774502929e-04 0.0000000000000000e+00  1.1561580421357591e-03 -5.6497264476250864e-04 0.0000000000000000e+00  1.6596667529034663e-03 6.7504444160589993e-04 0.0000000000000000e+00  1.6432697905189484e-03 3.4051889814183954e-04 0.0000000000000000e+00  1.6369226249144024e-03 1.6829989955939510e-05 0.0000000000000000e+00  1.6410134523370942e-03 -3.0748374950734377e-04 0.0000000000000000e+00  1.6554985279105606e-03 -6.4211805031075373e-04 0.0000000000000000e+00  2.2126489206927644e-03 7.3810487799145282e-04 0.0000000000000000e+00  2.1991253376384863e-03 3.7405334833968062e-04 0.0000000000000000e+00  2.1938123663938253e-03 2.0059449124884031e-05 0.0000000000000000e+00  2.1973680154710913e-03 -3.3434018971847452e-04 0.0000000000000000e+00  2.2082868678697447e-03 -6.9843798386904862e-04 0.0000000000000000e+00  2.7957395407127877e-03 7.8218387648180509e-04 0.0000000000000000e+00  2.7870826292817645e-03 3.9905740495885705e-04 0.0000000000000000e+00  2.7832005834165442e-03 2.2617547813292193e-05 0.0000000000000000e+00  2.7856358235663166e-03 -3.5374804563191782e-04 0.0000000000000000e+00  2.7930294174977927e-03 -7.3741742433815346e-04 0.0000000000000000e+00  3.4071358397614179e-03 8.1405388435375192e-04 0.0000000000000000e+00  3.3996439650376170e-03 4.1621913719015009e-04 0.0000000000000000e+00  3.3966563497078266e-03 2.5390665814345615e-05 0.0000000000000000e+00  3.3984051678153482e-03 -3.6615643856877398e-04 0.0000000000000000e+00  3.4034097689643228e-03 -7.6447531401267928e-04 0.0000000000000000e+00  4.0329252235769275e-03 8.3312164639039339e-04 0.0000000000000000e+00  4.0295815692761106e-03 4.2729456666923350e-04 0.0000000000000000e+00  4.0286391714288638e-03 2.7773987286582396e-05 0.0000000000000000e+00  4.0296415989232613e-03 -3.7217869798818285e-04 0.0000000000000000e+00  4.0320007920347069e-03 -7.7895834021195957e-04 0.0000000000000000e+00  4.6691849425491410e-03 8.3967894796795550e-04 0.0000000000000000e+00  4.6684799432714164e-03 4.3082288367972003e-04 0.0000000000000000e+00  4.6682548857227375e-03 2.9534754280993122e-05 0.0000000000000000e+00  4.6685148395184525e-03 -3.7203170917111429e-04 0.0000000000000000e+00  4.6681603276404028e-03 -7.8069828285391414e-04 0.0000000000000000e+00  5.3043865931145812e-03 8.3073326943399286e-04 0.0000000000000000e+00  5.3062908916479004e-03 4.2727539104248763e-04 0.0000000000000000e+00  5.3069128847321829e-03 3.1448690337701094e-05 0.0000000000000000e+00  5.3062686453413605e-03 -3.6497272451037495e-04 0.0000000000000000e+00  5.3032779655601174e-03 -7.6855904446709487e-04 0.0000000000000000e+00  5.9229960785175144e-03 8.0691583554172203e-04 0.0000000000000000e+00  5.9287555061973002e-03 4.1629367461338288e-04 0.0000000000000000e+00  5.9306112051730822e-03 3.2094325996872226e-05 0.0000000000000000e+00  5.9292424984242319e-03 -3.5181332094403516e-04 0.0000000000000000e+00  5.9232454600284977e-03 -7.4231266133944855e-04 0.0000000000000000e+00  6.5195689350497910e-03 7.7096762138645196e-04 0.0000000000000000e+00  6.5261379166691559e-03 3.9902380545878504e-04 0.0000000000000000e+00  6.5282608627448592e-03 3.3310801351347006e-05 0.0000000000000000e+00  6.5259524592048788e-03 -3.3291888200499294e-04 0.0000000000000000e+00  6.5180504312539033e-03 -7.0388111111081278e-04 0.0000000000000000e+00  7.0765590384037199e-03 7.2294385303999767e-04 0.0000000000000000e+00  7.0866993365879104e-03 3.7671192599478314e-04 0.0000000000000000e+00  7.0895055224137393e-03 3.4610624863414818e-05 0.0000000000000000e+00  7.0858154423350372e-03 -3.0779712897130109e-04 0.0000000000000000e+00  7.0748708012342270e-03 -6.5445432930422902e-04 0.0000000000000000e+00  7.5921046164343737e-03 6.6722359219829929e-04 0.0000000000000000e+00  7.6020789360347236e-03 3.5037154524425538e-04 0.0000000000000000e+00  7.6051840269297233e-03 3.5968814577562573e-05 0.0000000000000000e+00  7.6019840669014601e-03 -2.7898014387620383e-04 0.0000000000000000e+00  7.5904709321947279e-03 -5.9555889278779025e-04 0.0000000000000000e+00  8.0566724305864545e-03 6.0824346158335158e-04 0.0000000000000000e+00  8.0677754979867969e-03 3.2202105599847075e-04 0.0000000000000000e+00  8.0718570668713123e-03 3.7445521290186125e-05 0.0000000000000000e+00  8.0678369830956605e-03 -2.4666229546073008e-04 0.0000000000000000e+00  8.0547390218993157e-03 -5.3175315154833209e-04 0.0000000000000000e+00  8.4712942137559633e-03 5.4842462678848748e-04 0.0000000000000000e+00  8.4823332654208900e-03 2.9406483126154497e-04 0.0000000000000000e+00  8.4854750134453986e-03 3.9502040657686801e-05 0.0000000000000000e+00  8.4816643436032273e-03 -2.1367420261602431e-04 0.0000000000000000e+00  8.4691327884162775e-03 -4.6618466369724914e-04 0.0000000000000000e+00  8.8357999775011443e-03 4.9026549516992951e-04 0.0000000000000000e+00  8.8448705192691462e-03 2.6731701093870045e-04 0.0000000000000000e+00  8.8473378996074530e-03 4.2242562345317854e-05 0.0000000000000000e+00  8.8434985553306165e-03 -1.8211968974747171e-04 0.0000000000000000e+00  8.8320087692063069e-03 -4.0267234299944641e-04 0.0000000000000000e+00  9.1474078150930657e-03 4.3788586249904386e-04 0.0000000000000000e+00  9.1560445913858660e-03 2.4393366250648378e-04 0.0000000000000000e+00  9.1582506205898240e-03 4.4737386981079819e-05 0.0000000000000000e+00  9.1545623613654165e-03 -1.5344824055116044e-04 0.0000000000000000e+00  9.1441398671276066e-03 -3.4655668890589477e-04 0.0000000000000000e+00  9.4230699291099861e-03 3.9822992017912853e-04 0.0000000000000000e+00  9.4279452763381053e-03 2.2497511370160554e-04 0.0000000000000000e+00  9.4291525933364265e-03 4.7632938388820825e-05 0.0000000000000000e+00  9.4262319335920008e-03 -1.2991354711316131e-04 0.0000000000000000e+00  9.4190317342375245e-03 -3.0203978099812277e-04 0.0000000000000000e+00  9.6684822965204323e-03 3.6832880260147081e-04 0.0000000000000000e+00  9.6731375885065127e-03 2.1077026378794205e-04 0.0000000000000000e+00  9.6748480531586092e-03 5.0277315407963039e-05 0.0000000000000000e+00  9.6728492241307234e-03 -1.1047824995510420e-04 0.0000000000000000e+00  9.6667071842326657e-03 -2.6747223209839312e-04 0.0000000000000000e+00  9.8968363045553176e-03 3.4670935811846165e-04 0.0000000000000000e+00  9.8987929137504520e-03 2.0131483737910737e-04 0.0000000000000000e+00  9.8989688230678979e-03 5.3072218595822978e-05 0.0000000000000000e+00  9.8977231086395598e-03 -9.4830123805421303e-05 0.0000000000000000e+00  9.8934432570630670e-03 -2.3868016900499417e-04 0.0000000000000000e+00  1.0105916512618902e-02 3.3115664874304880e-04 0.0000000000000000e+00  1.0106719748454637e-02 1.9503588525879255e-04 0.0000000000000000e+00  1.0106690998153511e-02 5.6010460773255862e-05 0.0000000000000000e+00  1.0105490318968206e-02 -8.2794380234335819e-05 0.0000000000000000e+00  1.0102698261786639e-02 -2.1690702301757817e-04 0.0000000000000000e+00  1.0302828548069227e-02 3.2188797348717306e-04 0.0000000000000000e+00  1.0302877332175182e-02 1.9152118496230694e-04 0.0000000000000000e+00  1.0302473444054687e-02 5.8198457530768095e-05 0.0000000000000000e+00  1.0301386168348466e-02 -7.4247241969157488e-05 0.0000000000000000e+00  1.0299435618146498e-02 -2.0303412256811144e-04 0.0000000000000000e+00  1.0499553481285052e-02 3.2102475248517394e-04 0.0000000000000000e+00  1.0496440362842956e-02 1.9105424671329757e-04 0.0000000000000000e+00  1.0494867822700888e-02 6.0798976220941178e-05 0.0000000000000000e+00  1.0493939794396792e-02 -6.9620215009797158e-05 0.0000000000000000e+00  1.0495211254575509e-02 -1.9679281925755055e-04 0.0000000000000000e+00  1.0694311568079887e-02 3.2247859659534920e-04 0.0000000000000000e+00  1.0693476094670961e-02 1.9334855582106819e-04 0.0000000000000000e+00  1.0693068735383195e-02 6.3849265690438310e-05 0.0000000000000000e+00  1.0692447293915176e-02 -6.6221490242931633e-05 0.0000000000000000e+00  1.0691480085374619e-02 -1.9675454725176882e-04 0.0000000000000000e+00  </DataArray> 
</PointData> 
</Piece>
</UnstructuredGrid>
</VTKFile>