<?xml version="1.0"?>
<VTKFile type="UnstructuredGrid"  version="0.1"  >
<UnstructuredGrid>
<Piece  NumberOfPoints="135" NumberOfCells="208">
<Points>
<DataArray  type="Float64"  NumberOfComponents="3"  format="ascii">-0.05 0 0  -0.025 0 0  0 0 0  0.02500000000000001 0 0  0.05 0 0  -0.05 0.03846153846153846 0  -0.025 0.03846153846153846 0  0 0.03846153846153846 0  0.02500000000000001 0.03846153846153846 0  0.05 0.03846153846153846 0  -0.05 0.07692307692307693 0  -0.025 0.07692307692307693 0  0 0.07692307692307693 0  0.02500000000000001 0.07692307692307693 0  0.05 0.07692307692307693 0  -0.05 0.1153846153846154 0  -0.025 0.1153846153846154 0  0 0.1153846153846154 0  0.02500000000000001 0.1153846153846154 0  0.05 0.1153846153846154 0  -0.05 0.1538461538461539 0  -0.025 0.1538461538461539 0  0 0.1538461538461539 0  0.02500000000000001 0.1538461538461539 0  0.05 0.1538461538461539 0  -0.05 0.1923076923076923 0  -0.025 0.1923076923076923 0  0 0.1923076923076923 0  0.02500000000000001 0.1923076923076923 0  0.05 0.1923076923076923 0  -0.05 0.2307692307692308 0  -0.025 0.2307692307692308 0  0 0.2307692307692308 0  0.02500000000000001 0.2307692307692308 0  0.05 0.2307692307692308 0  -0.05 0.2692307692307692 0  -0.025 0.2692307692307692 0  0 0.2692307692307692 0  0.02500000000000001 0.2692307692307692 0  0.05 0.2692307692307692 0  -0.05 0.3076923076923077 0  -0.025 0.3076923076923077 0  0 0.3076923076923077 0  0.02500000000000001 0.3076923076923077 0  0.05 0.3076923076923077 0  -0.05 0.3461538461538461 0  -0.025 0.3461538461538461 0  0 0.3461538461538461 0  0.02500000000000001 0.3461538461538461 0  0.05 0.3461538461538461 0  -0.05 0.3846153846153846 0  -0.025 0.3846153846153846 0  0 0.3846153846153846 0  0.02500000000000001 0.3846153846153846 0  0.05 0.3846153846153846 0  -0.05 0.4230769230769231 0  -0.025 0.4230769230769231 0  0 0.4230769230769231 0  0.02500000000000001 0.4230769230769231 0  0.05 0.4230769230769231 0  -0.05 0.4615384615384616 0  -0.025 0.4615384615384616 0  0 0.4615384615384616 0  0.02500000000000001 0.4615384615384616 0  0.05 0.4615384615384616 0  -0.05 0.5 0  -0.025 0.5 0  0 0.5 0  0.02500000000000001 0.5 0  0.05 0.5 0  -0.05 0.5384615384615384 0  -0.025 0.5384615384615384 0  0 0.5384615384615384 0  0.02500000000000001 0.5384615384615384 0  0.05 0.5384615384615384 0  -0.05 0.5769230769230769 0  -0.025 0.5769230769230769 0  0 0.5769230769230769 0  0.02500000000000001 0.5769230769230769 0  0.05 0.5769230769230769 0  -0.05 0.6153846153846154 0  -0.025 0.6153846153846154 0  0 0.6153846153846154 0  0.02500000000000001 0.6153846153846154 0  0.05 0.6153846153846154 0  -0.05 0.6538461538461539 0  -0.025 0.6538461538461539 0  0 0.6538461538461539 0  0.02500000000000001 0.6538461538461539 0  0.05 0.6538461538461539 0  -0.05 0.6923076923076923 0  -0.025 0.6923076923076923 0  0 0.6923076923076923 0  0.02500000000000001 0.6923076923076923 0  0.05 0.6923076923076923 0  -0.05 0.7307692307692307 0  -0.025 0.7307692307692307 0  0 0.7307692307692307 0  0.02500000000000001 0.7307692307692307 0  0.05 0.7307692307692307 0  -0.05 0.7692307692307693 0  -0.025 0.7692307692307693 0  0 0.7692307692307693 0  0.02500000000000001 0.7692307692307693 0  0.05 0.7692307692307693 0  -0.05 0.8076923076923077 0  -0.025 0.8076923076923077 0  0 0.8076923076923077 0  0.02500000000000001 0.8076923076923077 0  0.05 0.8076923076923077 0  -0.05 0.8461538461538461 0  -0.025 0.8461538461538461 0  0 0.8461538461538461 0  0.02500000000000001 0.8461538461538461 0  0.05 0.8461538461538461 0  -0.05 0.8846153846153846 0  -0.025 0.8846153846153846 0  0 0.8846153846153846 0  0.02500000000000001 0.8846153846153846 0  0.05 0.8846153846153846 0  -0.05 0.9230769230769231 0  -0.025 0.9230769230769231 0  0 0.9230769230769231 0  0.02500000000000001 0.9230769230769231 0  0.05 0.9230769230769231 0  -0.05 0.9615384615384616 0  -0.025 0.9615384615384616 0  0 0.9615384615384616 0  0.02500000000000001 0.9615384615384616 0  0.05 0.9615384615384616 0  -0.05 1 0  -0.025 1 0  0 1 0  0.02500000000000001 1 0  0.05 1 0  </DataArray>
</Points>
<Cells>
<DataArray  type="UInt32"  Name="connectivity"  format="ascii">0 1 6  0 5 6  1 2 7  1 6 7  2 3 8  2 7 8  3 4 9  3 8 9  5 6 11  5 10 11  6 7 12  6 11 12  7 8 13  7 12 13  8 9 14  8 13 14  10 11 16  10 15 16  11 12 17  11 16 17  12 13 18  12 17 18  13 14 19  13 18 19  15 16 21  15 20 21  16 17 22  16 21 22  17 18 23  17 22 23  18 19 24  18 23 24  20 21 26  20 25 26  21 22 27  21 26 27  22 23 28  22 27 28  23 24 29  23 28 29  25 26 31  25 30 31  26 27 32  26 31 32  27 28 33  27 32 33  28 29 34  28 33 34  30 31 36  30 35 36  31 32 37  31 36 37  32 33 38  32 37 38  33 34 39  33 38 39  35 36 41  35 40 41  36 37 42  36 41 42  37 38 43  37 42 43  38 39 44  38 43 44  40 41 46  40 45 46  41 42 47  41 46 47  42 43 48  42 47 48  43 44 49  43 48 49  45 46 51  45 50 51  46 47 52  46 51 52  47 48 53  47 52 53  48 49 54  48 53 54  50 51 56  50 55 56  51 52 57  51 56 57  52 53 58  52 57 58  53 54 59  53 58 59  55 56 61  55 60 61  56 57 62  56 61 62  57 58 63  57 62 63  58 59 64  58 63 64  60 61 66  60 65 66  61 62 67  61 66 67  62 63 68  62 67 68  63 64 69  63 68 69  65 66 71  65 70 71  66 67 72  66 71 72  67 68 73  67 72 73  68 69 74  68 73 74  70 71 76  70 75 76  71 72 77  71 76 77  72 73 78  72 77 78  73 74 79  73 78 79  75 76 81  75 80 81  76 77 82  76 81 82  77 78 83  77 82 83  78 79 84  78 83 84  80 81 86  80 85 86  81 82 87  81 86 87  82 83 88  82 87 88  83 84 89  83 88 89  85 86 91  85 90 91  86 87 92  86 91 92  87 88 93  87 92 93  88 89 94  88 93 94  90 91 96  90 95 96  91 92 97  91 96 97  92 93 98  92 97 98  93 94 99  93 98 99  95 96 101  95 100 101  96 97 102  96 101 102  97 98 103  97 102 103  98 99 104  98 103 104  100 101 106  100 105 106  101 102 107  101 106 107  102 103 108  102 107 108  103 104 109  103 108 109  105 106 111  105 110 111  106 107 112  106 111 112  107 108 113  107 112 113  108 109 114  108 113 114  110 111 116  110 115 116  111 112 117  111 116 117  112 113 118  112 117 118  113 114 119  113 118 119  115 116 121  115 120 121  116 117 122  116 121 122  117 118 123  117 122 123  118 119 124  118 123 124  120 121 126  120 125 126  121 122 127  121 126 127  122 123 128  122 127 128  123 124 129  123 128 129  125 126 131  125 130 131  126 127 132  126 131 132  127 128 133  127 132 133  128 129 134  128 133 134  </DataArray>
<DataArray  type="UInt32"  Name="offsets"  format="ascii">3 6 9 12 15 18 21 24 27 30 33 36 39 42 45 48 51 54 57 60 63 66 69 72 75 78 81 84 87 90 93 96 99 102 105 108 111 114 117 120 123 126 129 132 135 138 141 144 147 150 153 156 159 162 165 168 171 174 177 180 183 186 189 192 195 198 201 204 207 210 213 216 219 222 225 228 231 234 237 240 243 246 249 252 255 258 261 264 267 270 273 276 279 282 285 288 291 294 297 300 303 306 309 312 315 318 321 324 327 330 333 336 339 342 345 348 351 354 357 360 363 366 369 372 375 378 381 384 387 390 393 396 399 402 405 408 411 414 417 420 423 426 429 432 435 438 441 444 447 450 453 456 459 462 465 468 471 474 477 480 483 486 489 492 495 498 501 504 507 510 513 516 519 522 525 528 531 534 537 540 543 546 549 552 555 558 561 564 567 570 573 576 579 582 585 588 591 594 597 600 603 606 609 612 615 618 621 624 </DataArray>
<DataArray  type="UInt8"  Name="types"  format="ascii">5 5 5 5 5 5 5 5 5 5 5 5 5 5 5 5 5 5 5 5 5 5 5 5 5 5 5 5 5 5 5 5 5 5 5 5 5 5 5 5 5 5 5 5 5 5 5 5 5 5 5 5 5 5 5 5 5 5 5 5 5 5 5 5 5 5 5 5 5 5 5 5 5 5 5 5 5 5 5 5 5 5 5 5 5 5 5 5 5 5 5 5 5 5 5 5 5 5 5 5 5 5 5 5 5 5 5 5 5 5 5 5 5 5 5 5 5 5 5 5 5 5 5 5 5 5 5 5 5 5 5 5 5 5 5 5 5 5 5 5 5 5 5 5 5 5 5 5 5 5 5 5 5 5 5 5 5 5 5 5 5 5 5 5 5 5 5 5 5 5 5 5 5 5 5 5 5 5 5 5 5 5 5 5 5 5 5 5 5 5 5 5 5 5 5 5 5 5 5 5 5 5 5 5 5 5 5 5 </DataArray>
</Cells>
<PointData  Vectors="Displacement"> 
<DataArray  type="Float64"  Name="Displacement"  NumberOfComponents="3" format="ascii">-4.1002868552398717e-16 5.4050178489239282e-18 0.0000000000000000e+00  0.0000000000000000e+00 0.0000000000000000e+00 0.0000000000000000e+00  0.0000000000000000e+00 0.0000000000000000e+00 0.0000000000000000e+00  -6.9811960295250335e-17 1.1567430536273646e-18 0.0000000000000000e+00  2.0943588088575101e-16 -3.4702291608820941e-18 0.0000000000000000e+00  3.6067020441820914e-04 5.6692080264832026e-04 0.0000000000000000e+00  2.3803295495629362e-04 2.7668763033383809e-04 0.0000000000000000e+00  1.9210165047861902e-04 5.1509397453691486e-06 0.0000000000000000e+00  2.2790079714482976e-04 -2.6389579101423132e-04 0.0000000000000000e+00  3.4867965583437152e-04 -5.6032074530185658e-04 0.0000000000000000e+00  1.0256292477665865e-03 1.1219455485001965e-03 0.0000000000000000e+00  9.0913201428467175e-04 5.6015881530107486e-04 0.0000000000000000e+00  8.6924878583287456e-04 1.0253504555021930e-05 0.0000000000000000e+00  9.0587354742035803e-04 -5.4048706776660752e-04 0.0000000000000000e+00  1.0187356192193440e-03 -1.1038520698659052e-03 0.0000000000000000e+00  2.1129883863153392e-03 1.6610107467015410e-03 0.0000000000000000e+00  2.0014622152488152e-03 8.3094595730296133e-04 0.0000000000000000e+00  1.9638447279845136e-03 1.4318317650031154e-05 0.0000000000000000e+00  1.9981694557372922e-03 -8.0236971733018011e-04 0.0000000000000000e+00  2.1058643125225086e-03 -1.6312726935023012e-03 0.0000000000000000e+00  3.6040092371041857e-03 2.1746608934879895e-03 0.0000000000000000e+00  3.4976614594055453e-03 1.0900973626529135e-03 0.0000000000000000e+00  3.4612359845157333e-03 1.9815081423423033e-05 0.0000000000000000e+00  3.4930281344380770e-03 -1.0506175809944127e-03 0.0000000000000000e+00  3.5954295860341802e-03 -2.1349622859455578e-03 0.0000000000000000e+00  5.4786811653886802e-03 2.6635528410604032e-03 0.0000000000000000e+00  5.3784926845801507e-03 1.3364309344024979e-03 0.0000000000000000e+00  5.3439187409113614e-03 2.5471955431476303e-05 0.0000000000000000e+00  5.3742508057579375e-03 -1.2855641700954511e-03 0.0000000000000000e+00  5.4705547676130190e-03 -2.6120218187348134e-03 0.0000000000000000e+00  7.7161692500031642e-03 3.1214762246638563e-03 0.0000000000000000e+00  7.6214331930414539e-03 1.5686318209866710e-03 0.0000000000000000e+00  7.5890621413004971e-03 3.1553080710127005e-05 0.0000000000000000e+00  7.6168455679745317e-03 -1.5056229898430600e-03 0.0000000000000000e+00  7.7071712910969075e-03 -3.0583673265601784e-03 0.0000000000000000e+00  1.0288856471869154e-02 3.5503956136625939e-03 0.0000000000000000e+00  1.0201675004129133e-02 1.7852462082892286e-03 0.0000000000000000e+00  1.0171396942418301e-02 3.7550678158423804e-05 0.0000000000000000e+00  1.0197361065813494e-02 -1.7103681967346647e-03 0.0000000000000000e+00  1.0280832462179212e-02 -3.4752103155006545e-03 0.0000000000000000e+00  1.3180651758971576e-02 3.9468149702439311e-03 0.0000000000000000e+00  1.3099784196770974e-02 1.9856622006147679e-03 0.0000000000000000e+00  1.3072111868574572e-02 4.3433578564872642e-05 0.0000000000000000e+00  1.3095403849416484e-02 -1.8987742936444614e-03 0.0000000000000000e+00  1.3171935173801103e-02 -3.8594533297840838e-03 0.0000000000000000e+00  1.6359095315224982e-02 4.3062846934315661e-03 0.0000000000000000e+00  1.6286676608199182e-02 2.1679488099498965e-03 0.0000000000000000e+00  1.6261454251039614e-02 4.9606263211982360e-05 0.0000000000000000e+00  1.6282225984628106e-02 -2.0690114109398524e-03 0.0000000000000000e+00  1.6350910525036219e-02 -4.2074062946716069e-03 0.0000000000000000e+00  1.9801035006186320e-02 4.6295056115363562e-03 0.0000000000000000e+00  1.9737035411512074e-02 2.3307275028000242e-03 0.0000000000000000e+00  1.9714886098672682e-02 5.5351764550783759e-05 0.0000000000000000e+00  1.9732855035463934e-02 -2.2200007678840504e-03 0.0000000000000000e+00  1.9792931136329205e-02 -4.5180128159969342e-03 0.0000000000000000e+00  2.3475100888055392e-02 4.9060570398368067e-03 0.0000000000000000e+00  2.3420614005876316e-02 2.4716650218839561e-03 0.0000000000000000e+00  2.3401392326621879e-02 6.1644499295822279e-05 0.0000000000000000e+00  2.3415931185818334e-02 -2.3485425091515316e-03 0.0000000000000000e+00  2.3466535008250983e-02 -4.7829086762488345e-03 0.0000000000000000e+00  2.7338809073340655e-02 5.1353122041950684e-03 0.0000000000000000e+00  2.7294827227258327e-02 2.5890903154953270e-03 0.0000000000000000e+00  2.7278712457913190e-02 6.7643170992359529e-05 0.0000000000000000e+00  2.7290493123486970e-02 -2.4538655660186690e-03 0.0000000000000000e+00  2.7330830545613617e-02 -4.9993194822401743e-03 0.0000000000000000e+00  3.1354856452345120e-02 5.3153946456032204e-03 0.0000000000000000e+00  3.1319235449634227e-02 2.6836518669637486e-03 0.0000000000000000e+00  3.1306190055077926e-02 7.3981795432353877e-05 0.0000000000000000e+00  3.1314430365220594e-02 -2.5357146804473860e-03 0.0000000000000000e+00  3.1345613837226324e-02 -5.1670384589764824e-03 0.0000000000000000e+00  3.5479341599774006e-02 5.4524350533533507e-03 0.0000000000000000e+00  3.5453126640834602e-02 2.7565848843780151e-03 0.0000000000000000e+00  3.5442705197006097e-02 8.0328595896803548e-05 0.0000000000000000e+00  3.5448522974751900e-02 -2.5961953173434422e-03 0.0000000000000000e+00  3.5470975569547619e-02 -5.2917884352696948e-03 0.0000000000000000e+00  3.9687096840526723e-02 5.5522021392809574e-03 0.0000000000000000e+00  3.9667264950655444e-02 2.8108768305971196e-03 0.0000000000000000e+00  3.9659392736914434e-02 8.6293644943467225e-05 0.0000000000000000e+00  3.9662742645359836e-02 -2.6383074405265565e-03 0.0000000000000000e+00  3.9678177820095473e-02 -5.3789685142194964e-03 0.0000000000000000e+00  4.3943919583285793e-02 5.6178842698433595e-03 0.0000000000000000e+00  4.3930222952305427e-02 2.8493001931816121e-03 0.0000000000000000e+00  4.3924078900786062e-02 9.2363483425214325e-05 0.0000000000000000e+00  4.3925746080634050e-02 -2.6648964720946832e-03 0.0000000000000000e+00  4.3935487250588781e-02 -5.4334898260820766e-03 0.0000000000000000e+00  4.8228636422812568e-02 5.6626035158594875e-03 0.0000000000000000e+00  4.8218565035939367e-02 2.8762391058440038e-03 0.0000000000000000e+00  4.8213927290075169e-02 9.7565679815357008e-05 0.0000000000000000e+00  4.8214612191714738e-02 -2.6811151138721387e-03 0.0000000000000000e+00  4.8220553856316212e-02 -5.4666175924091001e-03 0.0000000000000000e+00  5.2530006478290460e-02 5.6929801554554500e-03 0.0000000000000000e+00  5.2521372748013433e-02 2.8962488463604016e-03 0.0000000000000000e+00  5.2517434033866509e-02 1.0284003104795101e-04 0.0000000000000000e+00  5.2517164974891992e-02 -2.6906964804896175e-03 0.0000000000000000e+00  5.2521559849201059e-02 -5.4870165720310449e-03 0.0000000000000000e+00  5.6840566877223997e-02 5.7194928014778108e-03 0.0000000000000000e+00  5.6833519962022988e-02 2.9126339670129437e-03 0.0000000000000000e+00  5.6830000287791074e-02 1.0740587904299567e-04 0.0000000000000000e+00  5.6829796033377844e-02 -2.6979235856268353e-03 0.0000000000000000e+00  5.6833220400027390e-02 -5.5042064753463380e-03 0.0000000000000000e+00  6.1167723218053853e-02 5.7449968226883710e-03 0.0000000000000000e+00  6.1159727717751931e-02 2.9280246871174120e-03 0.0000000000000000e+00  6.1156430155641442e-02 1.1162259978459263e-04 0.0000000000000000e+00  6.1156056677918742e-02 -2.7048510454028159e-03 0.0000000000000000e+00  6.1160155819733837e-02 -5.5210822290085483e-03 0.0000000000000000e+00  6.5506566820734302e-02 5.7703803245154834e-03 0.0000000000000000e+00  6.5499513057828057e-02 2.9429693931332544e-03 0.0000000000000000e+00  6.5496380053779529e-02 1.1543675075456512e-04 0.0000000000000000e+00  6.5496478659202467e-02 -2.7123900951977055e-03 0.0000000000000000e+00  6.5500517875934319e-02 -5.5396429061867983e-03 0.0000000000000000e+00  6.9865832669856714e-02 5.7987729661432043e-03 0.0000000000000000e+00  6.9858141395336290e-02 2.9579603585583175e-03 0.0000000000000000e+00  6.9855465141475795e-02 1.1833195695718010e-04 0.0000000000000000e+00  6.9855704234337707e-02 -2.7209646513905211e-03 0.0000000000000000e+00  6.9860183718954902e-02 -5.5601965259452881e-03 0.0000000000000000e+00  7.4245376395208923e-02 5.8250481912902564e-03 0.0000000000000000e+00  7.4238347638186306e-02 2.9720282261455374e-03 0.0000000000000000e+00  7.4235627721876196e-02 1.2131647378134941e-04 0.0000000000000000e+00  7.4235532668083790e-02 -2.7289735828346265e-03 0.0000000000000000e+00  7.4239868985300522e-02 -5.5805071587858093e-03 0.0000000000000000e+00  7.8643999561546676e-02 5.8479440971463603e-03 0.0000000000000000e+00  7.8638822444595899e-02 2.9836290978230255e-03 0.0000000000000000e+00  7.8636817582491692e-02 1.2348417506840171e-04 0.0000000000000000e+00  7.8636842549746178e-02 -2.7358876772853773e-03 0.0000000000000000e+00  7.8639983852980905e-02 -5.5986570549141071e-03 0.0000000000000000e+00  8.3060556316472994e-02 5.8625822881312063e-03 0.0000000000000000e+00  8.3055250573386349e-02 2.9917725789767578e-03 0.0000000000000000e+00  8.3053354341378671e-02 1.2530771585995740e-04 0.0000000000000000e+00  8.3053416505891264e-02 -2.7402239889901627e-03 0.0000000000000000e+00  8.3056732209386946e-02 -5.6074002648427287e-03 0.0000000000000000e+00  8.7477031533669022e-02 5.8679656329583977e-03 0.0000000000000000e+00  8.7474596455966586e-02 2.9972375863012452e-03 0.0000000000000000e+00  8.7471926994425825e-02 1.2838226005792831e-04 0.0000000000000000e+00  8.7470204740748805e-02 -2.7400444006915265e-03 0.0000000000000000e+00  8.7469711532521532e-02 -5.6087567848699350e-03 0.0000000000000000e+00  </DataArray> 
</PointData> 
</Piece>
</UnstructuredGrid>
</VTKFile>