<?xml version="1.0"?>
<VTKFile type="UnstructuredGrid"  version="0.1"  >
<UnstructuredGrid>
<Piece  NumberOfPoints="135" NumberOfCells="208">
<Points>
<DataArray  type="Float64"  NumberOfComponents="3"  format="ascii">-0.05 0 0  -0.025 0 0  0 0 0  0.02500000000000001 0 0  0.05 0 0  -0.05 0.03846153846153846 0  -0.025 0.03846153846153846 0  0 0.03846153846153846 0  0.02500000000000001 0.03846153846153846 0  0.05 0.03846153846153846 0  -0.05 0.07692307692307693 0  -0.025 0.07692307692307693 0  0 0.07692307692307693 0  0.02500000000000001 0.07692307692307693 0  0.05 0.07692307692307693 0  -0.05 0.1153846153846154 0  -0.025 0.1153846153846154 0  0 0.1153846153846154 0  0.02500000000000001 0.1153846153846154 0  0.05 0.1153846153846154 0  -0.05 0.1538461538461539 0  -0.025 0.1538461538461539 0  0 0.1538461538461539 0  0.02500000000000001 0.1538461538461539 0  0.05 0.1538461538461539 0  -0.05 0.1923076923076923 0  -0.025 0.1923076923076923 0  0 0.1923076923076923 0  0.02500000000000001 0.1923076923076923 0  0.05 0.1923076923076923 0  -0.05 0.2307692307692308 0  -0.025 0.2307692307692308 0  0 0.2307692307692308 0  0.02500000000000001 0.2307692307692308 0  0.05 0.2307692307692308 0  -0.05 0.2692307692307692 0  -0.025 0.2692307692307692 0  0 0.2692307692307692 0  0.02500000000000001 0.2692307692307692 0  0.05 0.2692307692307692 0  -0.05 0.3076923076923077 0  -0.025 0.3076923076923077 0  0 0.3076923076923077 0  0.02500000000000001 0.3076923076923077 0  0.05 0.3076923076923077 0  -0.05 0.3461538461538461 0  -0.025 0.3461538461538461 0  0 0.3461538461538461 0  0.02500000000000001 0.3461538461538461 0  0.05 0.3461538461538461 0  -0.05 0.3846153846153846 0  -0.025 0.3846153846153846 0  0 0.3846153846153846 0  0.02500000000000001 0.3846153846153846 0  0.05 0.3846153846153846 0  -0.05 0.4230769230769231 0  -0.025 0.4230769230769231 0  0 0.4230769230769231 0  0.02500000000000001 0.4230769230769231 0  0.05 0.4230769230769231 0  -0.05 0.4615384615384616 0  -0.025 0.4615384615384616 0  0 0.4615384615384616 0  0.02500000000000001 0.4615384615384616 0  0.05 0.4615384615384616 0  -0.05 0.5 0  -0.025 0.5 0  0 0.5 0  0.02500000000000001 0.5 0  0.05 0.5 0  -0.05 0.5384615384615384 0  -0.025 0.5384615384615384 0  0 0.5384615384615384 0  0.02500000000000001 0.5384615384615384 0  0.05 0.5384615384615384 0  -0.05 0.5769230769230769 0  -0.025 0.5769230769230769 0  0 0.5769230769230769 0  0.02500000000000001 0.5769230769230769 0  0.05 0.5769230769230769 0  -0.05 0.6153846153846154 0  -0.025 0.6153846153846154 0  0 0.6153846153846154 0  0.02500000000000001 0.6153846153846154 0  0.05 0.6153846153846154 0  -0.05 0.6538461538461539 0  -0.025 0.6538461538461539 0  0 0.6538461538461539 0  0.02500000000000001 0.6538461538461539 0  0.05 0.6538461538461539 0  -0.05 0.6923076923076923 0  -0.025 0.6923076923076923 0  0 0.6923076923076923 0  0.02500000000000001 0.6923076923076923 0  0.05 0.6923076923076923 0  -0.05 0.7307692307692307 0  -0.025 0.7307692307692307 0  0 0.7307692307692307 0  0.02500000000000001 0.7307692307692307 0  0.05 0.7307692307692307 0  -0.05 0.7692307692307693 0  -0.025 0.7692307692307693 0  0 0.7692307692307693 0  0.02500000000000001 0.7692307692307693 0  0.05 0.7692307692307693 0  -0.05 0.8076923076923077 0  -0.025 0.8076923076923077 0  0 0.8076923076923077 0  0.02500000000000001 0.8076923076923077 0  0.05 0.8076923076923077 0  -0.05 0.8461538461538461 0  -0.025 0.8461538461538461 0  0 0.8461538461538461 0  0.02500000000000001 0.8461538461538461 0  0.05 0.8461538461538461 0  -0.05 0.8846153846153846 0  -0.025 0.8846153846153846 0  0 0.8846153846153846 0  0.02500000000000001 0.8846153846153846 0  0.05 0.8846153846153846 0  -0.05 0.9230769230769231 0  -0.025 0.9230769230769231 0  0 0.9230769230769231 0  0.02500000000000001 0.9230769230769231 0  0.05 0.9230769230769231 0  -0.05 0.9615384615384616 0  -0.025 0.9615384615384616 0  0 0.9615384615384616 0  0.02500000000000001 0.9615384615384616 0  0.05 0.9615384615384616 0  -0.05 1 0  -0.025 1 0  0 1 0  0.02500000000000001 1 0  0.05 1 0  </DataArray>
</Points>
<Cells>
<DataArray  type="UInt32"  Name="connectivity"  format="ascii">0 1 6  0 5 6  1 2 7  1 6 7  2 3 8  2 7 8  3 4 9  3 8 9  5 6 11  5 10 11  6 7 12  6 11 12  7 8 13  7 12 13  8 9 14  8 13 14  10 11 16  10 15 16  11 12 17  11 16 17  12 13 18  12 17 18  13 14 19  13 18 19  15 16 21  15 20 21  16 17 22  16 21 22  17 18 23  17 22 23  18 19 24  18 23 24  20 21 26  20 25 26  21 22 27  21 26 27  22 23 28  22 27 28  23 24 29  23 28 29  25 26 31  25 30 31  26 27 32  26 31 32  27 28 33  27 32 33  28 29 34  28 33 34  30 31 36  30 35 36  31 32 37  31 36 37  32 33 38  32 37 38  33 34 39  33 38 39  35 36 41  35 40 41  36 37 42  36 41 42  37 38 43  37 42 43  38 39 44  38 43 44  40 41 46  40 45 46  41 42 47  41 46 47  42 43 48  42 47 48  43 44 49  43 48 49  45 46 51  45 50 51  46 47 52  46 51 52  47 48 53  47 52 53  48 49 54  48 53 54  50 51 56  50 55 56  51 52 57  51 56 57  52 53 58  52 57 58  53 54 59  53 58 59  55 56 61  55 60 61  56 57 62  56 61 62  57 58 63  57 62 63  58 59 64  58 63 64  60 61 66  60 65 66  61 62 67  61 66 67  62 63 68  62 67 68  63 64 69  63 68 69  65 66 71  65 70 71  66 67 72  66 71 72  67 68 73  67 72 73  68 69 74  68 73 74  70 71 76  70 75 76  71 72 77  71 76 77  72 73 78  72 77 78  73 74 79  73 78 79  75 76 81  75 80 81  76 77 82  76 81 82  77 78 83  77 82 83  78 79 84  78 83 84  80 81 86  80 85 86  81 82 87  81 86 87  82 83 88  82 87 88  83 84 89  83 88 89  85 86 91  85 90 91  86 87 92  86 91 92  87 88 93  87 92 93  88 89 94  88 93 94  90 91 96  90 95 96  91 92 97  91 96 97  92 93 98  92 97 98  93 94 99  93 98 99  95 96 101  95 100 101  96 97 102  96 101 102  97 98 103  97 102 103  98 99 104  98 103 104  100 101 106  100 105 106  101 102 107  101 106 107  102 103 108  102 107 108  103 104 109  103 108 109  105 106 111  105 110 111  106 107 112  106 111 112  107 108 113  107 112 113  108 109 114  108 113 114  110 111 116  110 115 116  111 112 117  111 116 117  112 113 118  112 117 118  113 114 119  113 118 119  115 116 121  115 120 121  116 117 122  116 121 122  117 118 123  117 122 123  118 119 124  118 123 124  120 121 126  120 125 126  121 122 127  121 126 127  122 123 128  122 127 128  123 124 129  123 128 129  125 126 131  125 130 131  126 127 132  126 131 132  127 128 133  127 132 133  128 129 134  128 133 134  </DataArray>
<DataArray  type="UInt32"  Name="offsets"  format="ascii">3 6 9 12 15 18 21 24 27 30 33 36 39 42 45 48 51 54 57 60 63 66 69 72 75 78 81 84 87 90 93 96 99 102 105 108 111 114 117 120 123 126 129 132 135 138 141 144 147 150 153 156 159 162 165 168 171 174 177 180 183 186 189 192 195 198 201 204 207 210 213 216 219 222 225 228 231 234 237 240 243 246 249 252 255 258 261 264 267 270 273 276 279 282 285 288 291 294 297 300 303 306 309 312 315 318 321 324 327 330 333 336 339 342 345 348 351 354 357 360 363 366 369 372 375 378 381 384 387 390 393 396 399 402 405 408 411 414 417 420 423 426 429 432 435 438 441 444 447 450 453 456 459 462 465 468 471 474 477 480 483 486 489 492 495 498 501 504 507 510 513 516 519 522 525 528 531 534 537 540 543 546 549 552 555 558 561 564 567 570 573 576 579 582 585 588 591 594 597 600 603 606 609 612 615 618 621 624 </DataArray>
<DataArray  type="UInt8"  Name="types"  format="ascii">5 5 5 5 5 5 5 5 5 5 5 5 5 5 5 5 5 5 5 5 5 5 5 5 5 5 5 5 5 5 5 5 5 5 5 5 5 5 5 5 5 5 5 5 5 5 5 5 5 5 5 5 5 5 5 5 5 5 5 5 5 5 5 5 5 5 5 5 5 5 5 5 5 5 5 5 5 5 5 5 5 5 5 5 5 5 5 5 5 5 5 5 5 5 5 5 5 5 5 5 5 5 5 5 5 5 5 5 5 5 5 5 5 5 5 5 5 5 5 5 5 5 5 5 5 5 5 5 5 5 5 5 5 5 5 5 5 5 5 5 5 5 5 5 5 5 5 5 5 5 5 5 5 5 5 5 5 5 5 5 5 5 5 5 5 5 5 5 5 5 5 5 5 5 5 5 5 5 5 5 5 5 5 5 5 5 5 5 5 5 5 5 5 5 5 5 5 5 5 5 5 5 5 5 5 5 5 5 </DataArray>
</Cells>
<PointData  Vectors="Displacement"> 
<DataArray  type="Float64"  Name="Displacement"  NumberOfComponents="3" format="ascii">-4.4968851309947028e-16 4.0732361000965682e-18 0.0000000000000000e+00  0.0000000000000000e+00 0.0000000000000000e+00 0.0000000000000000e+00  0.0000000000000000e+00 0.0000000000000000e+00 0.0000000000000000e+00  -5.3444393402342358e-17 5.3413320805856278e-19 0.0000000000000000e+00  1.6033318020702708e-16 -1.6023996241756885e-18 0.0000000000000000e+00  1.5156197385463488e-04 2.0390116301346572e-04 0.0000000000000000e+00  1.0961666551518391e-04 9.5315819201168846e-05 0.0000000000000000e+00  9.3683240952238052e-05 2.4586401254239593e-06 0.0000000000000000e+00  1.0578376624884885e-04 -8.8920705701810908e-05 0.0000000000000000e+00  1.4683557835794866e-04 -1.9860619201520987e-04 0.0000000000000000e+00  3.9627111690854053e-04 3.8097297952505881e-04 0.0000000000000000e+00  3.5991463385705015e-04 1.8798245327592269e-04 0.0000000000000000e+00  3.4683437893942917e-04 5.7021235329496893e-06 0.0000000000000000e+00  3.5802880618052412e-04 -1.7618871440435249e-04 0.0000000000000000e+00  3.9236205333239150e-04 -3.6829961799693584e-04 0.0000000000000000e+00  7.6439178669566370e-04 5.3964794431645129e-04 0.0000000000000000e+00  7.3110865055525220e-04 2.7031264185034434e-04 0.0000000000000000e+00  7.1884631835790426e-04 8.7509385276208667e-06 0.0000000000000000e+00  7.2826277135275969e-04 -2.5187625238620254e-04 0.0000000000000000e+00  7.5892184646252341e-04 -5.2011777016562654e-04 0.0000000000000000e+00  1.2412574483550412e-03 6.8439446152415001e-04 0.0000000000000000e+00  1.2111702536634870e-03 3.4485225615716361e-04 0.0000000000000000e+00  1.2006671325708765e-03 1.2105593683731655e-05 0.0000000000000000e+00  1.2089049601660378e-03 -3.1989865910514545e-04 0.0000000000000000e+00  1.2368457938368715e-03 -6.5839969275921398e-04 0.0000000000000000e+00  1.8226795038872713e-03 8.1751759742294090e-04 0.0000000000000000e+00  1.7955549983475435e-03 4.1242316689134480e-04 0.0000000000000000e+00  1.7852120300640378e-03 1.5696928480619730e-05 0.0000000000000000e+00  1.7922287313170626e-03 -3.8112233860287497e-04 0.0000000000000000e+00  1.8175004040240964e-03 -7.8529202400713432e-04 0.0000000000000000e+00  2.5033396515356516e-03 9.3624200193192326e-04 0.0000000000000000e+00  2.4784653046423960e-03 4.7363459801792745e-04 0.0000000000000000e+00  2.4689756789227925e-03 1.9726860216599870e-05 0.0000000000000000e+00  2.4747232492433185e-03 -4.3451412361474940e-04 0.0000000000000000e+00  2.4962957792355489e-03 -8.9737740370324042e-04 0.0000000000000000e+00  3.2631839194587737e-03 1.0383274876870578e-03 0.0000000000000000e+00  3.2427800549745707e-03 5.2678371749825337e-04 0.0000000000000000e+00  3.2353057653723297e-03 2.4030930273550984e-05 0.0000000000000000e+00  3.2405137065149069e-03 -4.7916323989921161e-04 0.0000000000000000e+00  3.2583209108589767e-03 -9.9136936592839195e-04 0.0000000000000000e+00  4.0944858513138876e-03 1.1246788935370270e-03 0.0000000000000000e+00  4.0766826979228375e-03 5.7175336560233046e-04 0.0000000000000000e+00  4.0697756262906152e-03 2.7619250324877659e-05 0.0000000000000000e+00  4.0734207612746478e-03 -5.1585570079647604e-04 0.0000000000000000e+00  4.0882115655242052e-03 -1.0668846212690188e-03 0.0000000000000000e+00  4.9816606048961182e-03 1.1951890549840496e-03 0.0000000000000000e+00  4.9671810959509444e-03 6.0927210059531854e-04 0.0000000000000000e+00  4.9608041420695125e-03 3.2570381414525772e-05 0.0000000000000000e+00  4.9628130547628886e-03 -5.4414609543880542e-04 0.0000000000000000e+00  4.9739968212970135e-03 -1.1298365874292996e-03 0.0000000000000000e+00  5.9147157134764854e-03 1.2503823622410249e-03 0.0000000000000000e+00  5.9039195998300924e-03 6.3888796614068079e-04 0.0000000000000000e+00  5.8991759726387530e-03 3.7185006395487381e-05 0.0000000000000000e+00  5.9003921821400972e-03 -5.6463292924831038e-04 0.0000000000000000e+00  5.9083444465165965e-03 -1.1764129140286129e-03 0.0000000000000000e+00  6.8831636397579552e-03 1.2865586998879711e-03 0.0000000000000000e+00  6.8766331269028442e-03 6.5830596386771609e-04 0.0000000000000000e+00  6.8735227425468061e-03 4.1164713568785360e-05 0.0000000000000000e+00  6.8734463176470893e-03 -5.7580816853894303e-04 0.0000000000000000e+00  6.8769893748569112e-03 -1.2033625994203147e-03 0.0000000000000000e+00  7.8683695750257684e-03 1.2999510454906544e-03 0.0000000000000000e+00  7.8671409179946507e-03 6.6692190572567166e-04 0.0000000000000000e+00  7.8651884541840605e-03 4.5788785684975314e-05 0.0000000000000000e+00  7.8630099003971811e-03 -5.7560942230604239e-04 0.0000000000000000e+00  7.8614835202072166e-03 -1.2081735340227586e-03 0.0000000000000000e+00  8.8535736845578132e-03 1.2898593719443924e-03 0.0000000000000000e+00  8.8562547779041066e-03 6.6456629473383814e-04 0.0000000000000000e+00  8.8560515526062318e-03 5.0822997958911515e-05 0.0000000000000000e+00  8.8525121919083485e-03 -5.6302555620753433e-04 0.0000000000000000e+00  8.8462415605450075e-03 -1.1886321362700790e-03 0.0000000000000000e+00  9.8146903915485133e-03 1.2571154233481938e-03 0.0000000000000000e+00  9.8226679312023064e-03 6.5065864948156871e-04 0.0000000000000000e+00  9.8242489387976601e-03 5.5248643071402583e-05 0.0000000000000000e+00  9.8199850243370582e-03 -5.3981523931867341e-04 0.0000000000000000e+00  9.8092583998265967e-03 -1.1449689031794972e-03 0.0000000000000000e+00  1.0737921978657961e-02 1.2033117333847510e-03 0.0000000000000000e+00  1.0748811667455567e-02 6.2761716425800348e-04 0.0000000000000000e+00  1.0750484691824620e-02 6.0118097240889931e-05 0.0000000000000000e+00  1.0743824639027634e-02 -5.0662291388316920e-04 0.0000000000000000e+00  1.0729210327151928e-02 -1.0806977782663266e-03 0.0000000000000000e+00  1.1600423570612287e-02 1.1323753718009500e-03 0.0000000000000000e+00  1.1614284273660347e-02 5.9669338793319113e-04 0.0000000000000000e+00  1.1617297277973710e-02 6.5817531585569451e-05 0.0000000000000000e+00  1.1610194760590340e-02 -4.6505067979237517e-04 0.0000000000000000e+00  1.1592764746020483e-02 -1.0005640877170444e-03 0.0000000000000000e+00  1.2394086965780707e-02 1.0535446888331949e-03 0.0000000000000000e+00  1.2408891202235789e-02 5.6157458632782376e-04 0.0000000000000000e+00  1.2412275747935750e-02 7.1073776463505717e-05 0.0000000000000000e+00  1.2405103680362028e-02 -4.1945918883326316e-04 0.0000000000000000e+00  1.2386844615230387e-02 -9.1078861671879403e-04 0.0000000000000000e+00  1.3117075017090730e-02 9.7443313195374700e-04 0.0000000000000000e+00  1.3130591701616340e-02 5.2636060860375975e-04 0.0000000000000000e+00  1.3133495287246217e-02 7.6784650081145804e-05 0.0000000000000000e+00  1.3125986623986461e-02 -3.7308770536826529e-04 0.0000000000000000e+00  1.3108080305455651e-02 -8.2034447836787589e-04 0.0000000000000000e+00  1.3768610028084636e-02 9.0045376908707837e-04 0.0000000000000000e+00  1.3781522355109857e-02 4.9353656613059264e-04 0.0000000000000000e+00  1.3784376457302102e-02 8.2750934307488410e-05 0.0000000000000000e+00  1.3777640291817788e-02 -3.2858770230424848e-04 0.0000000000000000e+00  1.3760950727131028e-02 -7.3569993139106565e-04 0.0000000000000000e+00  1.4359717413063303e-02 8.3574222487186635e-04 0.0000000000000000e+00  1.4369319116872590e-02 4.6537877757845704e-04 0.0000000000000000e+00  1.4371137011638082e-02 8.7978708638982323e-05 0.0000000000000000e+00  1.4365470935445457e-02 -2.8954232234073819e-04 0.0000000000000000e+00  1.4351822085012530e-02 -6.5944825172099212e-04 0.0000000000000000e+00  1.4894240375617139e-02 7.8406366570935775e-04 0.0000000000000000e+00  1.4901879733060869e-02 4.4211686435142279e-04 0.0000000000000000e+00  1.4903538368997627e-02 9.2323879243818801e-05 0.0000000000000000e+00  1.4898538440578531e-02 -2.5757511452530408e-04 0.0000000000000000e+00  1.4887475605491234e-02 -5.9820943624926159e-04 0.0000000000000000e+00  1.5394396618228126e-02 7.5046438382046527e-04 0.0000000000000000e+00  1.5397677386688803e-02 4.2728961269741464e-04 0.0000000000000000e+00  1.5397377229058777e-02 9.6891238232972078e-05 0.0000000000000000e+00  1.5393269158258111e-02 -2.3374602757394699e-04 0.0000000000000000e+00  1.5386456024953346e-02 -5.5637144159571600e-04 0.0000000000000000e+00  1.5872100277788556e-02 7.3361213157062172e-04 0.0000000000000000e+00  1.5872561335770852e-02 4.2001932799158766e-04 0.0000000000000000e+00  1.5872442662449755e-02 1.0101695005312217e-04 0.0000000000000000e+00  1.5870205018635633e-02 -2.1875686583135634e-04 0.0000000000000000e+00  1.5866730112459999e-02 -5.3267072258512949e-04 0.0000000000000000e+00  1.6345557834133773e-02 7.3108334300081600e-04 0.0000000000000000e+00  1.6344414293719755e-02 4.1856347337439187e-04 0.0000000000000000e+00  1.6344029303609734e-02 1.0358126540645907e-04 0.0000000000000000e+00  1.6343173051660557e-02 -2.1141924798343965e-04 0.0000000000000000e+00  1.6342398325725583e-02 -5.2318292714664772e-04 0.0000000000000000e+00  1.6826566103590988e-02 7.3494883653939019e-04 0.0000000000000000e+00  1.6822950029942895e-02 4.2082038140094530e-04 0.0000000000000000e+00  1.6821629047614001e-02 1.0609386862649020e-04 0.0000000000000000e+00  1.6820925993052668e-02 -2.0827463841772907e-04 0.0000000000000000e+00  1.6822342434639065e-02 -5.1979403126308323e-04 0.0000000000000000e+00  1.7306209327982571e-02 7.3825236331254520e-04 0.0000000000000000e+00  1.7305048235339088e-02 4.2408954171035994e-04 0.0000000000000000e+00  1.7304703772434874e-02 1.0894001489638970e-04 0.0000000000000000e+00  1.7303937673690758e-02 -2.0603703147679438e-04 0.0000000000000000e+00  1.7303473479687199e-02 -5.2030284622216964e-04 0.0000000000000000e+00  </DataArray> 
</PointData> 
</Piece>
</UnstructuredGrid>
</VTKFile>