<?xml version="1.0"?>
<VTKFile type="UnstructuredGrid"  version="0.1"  >
<UnstructuredGrid>
<Piece  NumberOfPoints="135" NumberOfCells="208">
<Points>
<DataArray  type="Float64"  NumberOfComponents="3"  format="ascii">-0.05 0 0  -0.025 0 0  0 0 0  0.02500000000000001 0 0  0.05 0 0  -0.05 0.03846153846153846 0  -0.025 0.03846153846153846 0  0 0.03846153846153846 0  0.02500000000000001 0.03846153846153846 0  0.05 0.03846153846153846 0  -0.05 0.07692307692307693 0  -0.025 0.07692307692307693 0  0 0.07692307692307693 0  0.02500000000000001 0.07692307692307693 0  0.05 0.07692307692307693 0  -0.05 0.1153846153846154 0  -0.025 0.1153846153846154 0  0 0.1153846153846154 0  0.02500000000000001 0.1153846153846154 0  0.05 0.1153846153846154 0  -0.05 0.1538461538461539 0  -0.025 0.1538461538461539 0  0 0.1538461538461539 0  0.02500000000000001 0.1538461538461539 0  0.05 0.1538461538461539 0  -0.05 0.1923076923076923 0  -0.025 0.1923076923076923 0  0 0.1923076923076923 0  0.02500000000000001 0.1923076923076923 0  0.05 0.1923076923076923 0  -0.05 0.2307692307692308 0  -0.025 0.2307692307692308 0  0 0.2307692307692308 0  0.02500000000000001 0.2307692307692308 0  0.05 0.2307692307692308 0  -0.05 0.2692307692307692 0  -0.025 0.2692307692307692 0  0 0.2692307692307692 0  0.02500000000000001 0.2692307692307692 0  0.05 0.2692307692307692 0  -0.05 0.3076923076923077 0  -0.025 0.3076923076923077 0  0 0.3076923076923077 0  0.02500000000000001 0.3076923076923077 0  0.05 0.3076923076923077 0  -0.05 0.3461538461538461 0  -0.025 0.3461538461538461 0  0 0.3461538461538461 0  0.02500000000000001 0.3461538461538461 0  0.05 0.3461538461538461 0  -0.05 0.3846153846153846 0  -0.025 0.3846153846153846 0  0 0.3846153846153846 0  0.02500000000000001 0.3846153846153846 0  0.05 0.3846153846153846 0  -0.05 0.4230769230769231 0  -0.025 0.4230769230769231 0  0 0.4230769230769231 0  0.02500000000000001 0.4230769230769231 0  0.05 0.4230769230769231 0  -0.05 0.4615384615384616 0  -0.025 0.4615384615384616 0  0 0.4615384615384616 0  0.02500000000000001 0.4615384615384616 0  0.05 0.4615384615384616 0  -0.05 0.5 0  -0.025 0.5 0  0 0.5 0  0.02500000000000001 0.5 0  0.05 0.5 0  -0.05 0.5384615384615384 0  -0.025 0.5384615384615384 0  0 0.5384615384615384 0  0.02500000000000001 0.5384615384615384 0  0.05 0.5384615384615384 0  -0.05 0.5769230769230769 0  -0.025 0.5769230769230769 0  0 0.5769230769230769 0  0.02500000000000001 0.5769230769230769 0  0.05 0.5769230769230769 0  -0.05 0.6153846153846154 0  -0.025 0.6153846153846154 0  0 0.6153846153846154 0  0.02500000000000001 0.6153846153846154 0  0.05 0.6153846153846154 0  -0.05 0.6538461538461539 0  -0.025 0.6538461538461539 0  0 0.6538461538461539 0  0.02500000000000001 0.6538461538461539 0  0.05 0.6538461538461539 0  -0.05 0.6923076923076923 0  -0.025 0.6923076923076923 0  0 0.6923076923076923 0  0.02500000000000001 0.6923076923076923 0  0.05 0.6923076923076923 0  -0.05 0.7307692307692307 0  -0.025 0.7307692307692307 0  0 0.7307692307692307 0  0.02500000000000001 0.7307692307692307 0  0.05 0.7307692307692307 0  -0.05 0.7692307692307693 0  -0.025 0.7692307692307693 0  0 0.7692307692307693 0  0.02500000000000001 0.7692307692307693 0  0.05 0.7692307692307693 0  -0.05 0.8076923076923077 0  -0.025 0.8076923076923077 0  0 0.8076923076923077 0  0.02500000000000001 0.8076923076923077 0  0.05 0.8076923076923077 0  -0.05 0.8461538461538461 0  -0.025 0.8461538461538461 0  0 0.8461538461538461 0  0.02500000000000001 0.8461538461538461 0  0.05 0.8461538461538461 0  -0.05 0.8846153846153846 0  -0.025 0.8846153846153846 0  0 0.8846153846153846 0  0.02500000000000001 0.8846153846153846 0  0.05 0.8846153846153846 0  -0.05 0.9230769230769231 0  -0.025 0.9230769230769231 0  0 0.9230769230769231 0  0.02500000000000001 0.9230769230769231 0  0.05 0.9230769230769231 0  -0.05 0.9615384615384616 0  -0.025 0.9615384615384616 0  0 0.9615384615384616 0  0.02500000000000001 0.9615384615384616 0  0.05 0.9615384615384616 0  -0.05 1 0  -0.025 1 0  0 1 0  0.02500000000000001 1 0  0.05 1 0  </DataArray>
</Points>
<Cells>
<DataArray  type="UInt32"  Name="connectivity"  format="ascii">0 1 6  0 5 6  1 2 7  1 6 7  2 3 8  2 7 8  3 4 9  3 8 9  5 6 11  5 10 11  6 7 12  6 11 12  7 8 13  7 12 13  8 9 14  8 13 14  10 11 16  10 15 16  11 12 17  11 16 17  12 13 18  12 17 18  13 14 19  13 18 19  15 16 21  15 20 21  16 17 22  16 21 22  17 18 23  17 22 23  18 19 24  18 23 24  20 21 26  20 25 26  21 22 27  21 26 27  22 23 28  22 27 28  23 24 29  23 28 29  25 26 31  25 30 31  26 27 32  26 31 32  27 28 33  27 32 33  28 29 34  28 33 34  30 31 36  30 35 36  31 32 37  31 36 37  32 33 38  32 37 38  33 34 39  33 38 39  35 36 41  35 40 41  36 37 42  36 41 42  37 38 43  37 42 43  38 39 44  38 43 44  40 41 46  40 45 46  41 42 47  41 46 47  42 43 48  42 47 48  43 44 49  43 48 49  45 46 51  45 50 51  46 47 52  46 51 52  47 48 53  47 52 53  48 49 54  48 53 54  50 51 56  50 55 56  51 52 57  51 56 57  52 53 58  52 57 58  53 54 59  53 58 59  55 56 61  55 60 61  56 57 62  56 61 62  57 58 63  57 62 63  58 59 64  58 63 64  60 61 66  60 65 66  61 62 67  61 66 67  62 63 68  62 67 68  63 64 69  63 68 69  65 66 71  65 70 71  66 67 72  66 71 72  67 68 73  67 72 73  68 69 74  68 73 74  70 71 76  70 75 76  71 72 77  71 76 77  72 73 78  72 77 78  73 74 79  73 78 79  75 76 81  75 80 81  76 77 82  76 81 82  77 78 83  77 82 83  78 79 84  78 83 84  80 81 86  80 85 86  81 82 87  81 86 87  82 83 88  82 87 88  83 84 89  83 88 89  85 86 91  85 90 91  86 87 92  86 91 92  87 88 93  87 92 93  88 89 94  88 93 94  90 91 96  90 95 96  91 92 97  91 96 97  92 93 98  92 97 98  93 94 99  93 98 99  95 96 101  95 100 101  96 97 102  96 101 102  97 98 103  97 102 103  98 99 104  98 103 104  100 101 106  100 105 106  101 102 107  101 106 107  102 103 108  102 107 108  103 104 109  103 108 109  105 106 111  105 110 111  106 107 112  106 111 112  107 108 113  107 112 113  108 109 114  108 113 114  110 111 116  110 115 116  111 112 117  111 116 117  112 113 118  112 117 118  113 114 119  113 118 119  115 116 121  115 120 121  116 117 122  116 121 122  117 118 123  117 122 123  118 119 124  118 123 124  120 121 126  120 125 126  121 122 127  121 126 127  122 123 128  122 127 128  123 124 129  123 128 129  125 126 131  125 130 131  126 127 132  126 131 132  127 128 133  127 132 133  128 129 134  128 133 134  </DataArray>
<DataArray  type="UInt32"  Name="offsets"  format="ascii">3 6 9 12 15 18 21 24 27 30 33 36 39 42 45 48 51 54 57 60 63 66 69 72 75 78 81 84 87 90 93 96 99 102 105 108 111 114 117 120 123 126 129 132 135 138 141 144 147 150 153 156 159 162 165 168 171 174 177 180 183 186 189 192 195 198 201 204 207 210 213 216 219 222 225 228 231 234 237 240 243 246 249 252 255 258 261 264 267 270 273 276 279 282 285 288 291 294 297 300 303 306 309 312 315 318 321 324 327 330 333 336 339 342 345 348 351 354 357 360 363 366 369 372 375 378 381 384 387 390 393 396 399 402 405 408 411 414 417 420 423 426 429 432 435 438 441 444 447 450 453 456 459 462 465 468 471 474 477 480 483 486 489 492 495 498 501 504 507 510 513 516 519 522 525 528 531 534 537 540 543 546 549 552 555 558 561 564 567 570 573 576 579 582 585 588 591 594 597 600 603 606 609 612 615 618 621 624 </DataArray>
<DataArray  type="UInt8"  Name="types"  format="ascii">5 5 5 5 5 5 5 5 5 5 5 5 5 5 5 5 5 5 5 5 5 5 5 5 5 5 5 5 5 5 5 5 5 5 5 5 5 5 5 5 5 5 5 5 5 5 5 5 5 5 5 5 5 5 5 5 5 5 5 5 5 5 5 5 5 5 5 5 5 5 5 5 5 5 5 5 5 5 5 5 5 5 5 5 5 5 5 5 5 5 5 5 5 5 5 5 5 5 5 5 5 5 5 5 5 5 5 5 5 5 5 5 5 5 5 5 5 5 5 5 5 5 5 5 5 5 5 5 5 5 5 5 5 5 5 5 5 5 5 5 5 5 5 5 5 5 5 5 5 5 5 5 5 5 5 5 5 5 5 5 5 5 5 5 5 5 5 5 5 5 5 5 5 5 5 5 5 5 5 5 5 5 5 5 5 5 5 5 5 5 5 5 5 5 5 5 5 5 5 5 5 5 5 5 5 5 5 5 </DataArray>
</Cells>
<PointData  Vectors="Displacement"> 
<DataArray  type="Float64"  Name="Displacement"  NumberOfComponents="3" format="ascii">-4.7346938722612415e-16 5.0898058099257558e-18 0.0000000000000000e+00  0.0000000000000000e+00 0.0000000000000000e+00 0.0000000000000000e+00  0.0000000000000000e+00 0.0000000000000000e+00 0.0000000000000000e+00  -5.6717067952296048e-17 1.0948398042236125e-18 0.0000000000000000e+00  1.7015120385688816e-16 -3.2845194126708378e-18 0.0000000000000000e+00  3.1931093543271924e-04 4.5583427305182899e-04 0.0000000000000000e+00  2.2486505695796483e-04 2.1461754117089042e-04 0.0000000000000000e+00  1.8958215326699205e-04 9.8600134438762405e-07 0.0000000000000000e+00  2.1829742220072409e-04 -2.1059083503968454e-04 0.0000000000000000e+00  3.1390559722663952e-04 -4.5667948100027263e-04 0.0000000000000000e+00  8.7099809977061505e-04 8.7192863895021978e-04 0.0000000000000000e+00  7.8633072149835749e-04 4.2682659393601370e-04 0.0000000000000000e+00  7.5738793119649794e-04 2.0384101547791886e-06 0.0000000000000000e+00  7.8484918291968071e-04 -4.2340536052112420e-04 0.0000000000000000e+00  8.6918963846661793e-04 -8.6962450903289791e-04 0.0000000000000000e+00  1.7291682433880967e-03 1.2526890158429142e-03 0.0000000000000000e+00  1.6525010800714616e-03 6.1702854281441564e-04 0.0000000000000000e+00  1.6270809317341659e-03 2.3798941440381997e-06 0.0000000000000000e+00  1.6522078146649496e-03 -6.1297878859174141e-04 0.0000000000000000e+00  1.7287400722500478e-03 -1.2481678556324454e-03 0.0000000000000000e+00  2.8657355300586119e-03 1.5947359210795075e-03 0.0000000000000000e+00  2.7961696316610549e-03 7.8908142540877772e-04 0.0000000000000000e+00  2.7726858454654502e-03 2.9324743862776582e-06 0.0000000000000000e+00  2.7944549932602388e-03 -7.8373771324951550e-04 0.0000000000000000e+00  2.8629877013244156e-03 -1.5885038192718845e-03 0.0000000000000000e+00  4.2444881616008519e-03 1.8997618478166678e-03 0.0000000000000000e+00  4.1833441475587910e-03 9.4343759408272723e-04 0.0000000000000000e+00  4.1625833873494868e-03 4.3071695583021603e-06 0.0000000000000000e+00  4.1817416670854486e-03 -9.3556010266508465e-04 0.0000000000000000e+00  4.2423025658631175e-03 -1.8926367503152744e-03 0.0000000000000000e+00  5.8437888500307809e-03 2.1728354164846147e-03 0.0000000000000000e+00  5.7881709537324277e-03 1.0808294337188457e-03 0.0000000000000000e+00  5.7701465704039579e-03 5.4696262762794465e-06 0.0000000000000000e+00  5.7878860134400190e-03 -1.0709429905267865e-03 0.0000000000000000e+00  5.8423331205642625e-03 -2.1634196789048709e-03 0.0000000000000000e+00  7.6371452791414319e-03 2.4166981634997724e-03 0.0000000000000000e+00  7.5889801826575908e-03 1.2029425841414466e-03 0.0000000000000000e+00  7.5731943537114474e-03 5.5271522701349595e-06 0.0000000000000000e+00  7.5887410373235683e-03 -1.1918060202986388e-03 0.0000000000000000e+00  7.6366199013630153e-03 -2.4047536812702827e-03 0.0000000000000000e+00  9.6096980242759474e-03 2.6310894111030120e-03 0.0000000000000000e+00  9.5662679496237007e-03 1.3102225354976217e-03 0.0000000000000000e+00  9.5517583281074722e-03 6.1548719527286127e-06 0.0000000000000000e+00  9.5646181171526838e-03 -1.2979494741761750e-03 0.0000000000000000e+00  9.6066959240571469e-03 -2.6179354700505077e-03 0.0000000000000000e+00  1.1730960163118026e-02 2.8127146441154203e-03 0.0000000000000000e+00  1.1695651086794772e-02 1.4019764076504434e-03 0.0000000000000000e+00  1.1684138597594516e-02 6.8532558391260255e-06 0.0000000000000000e+00  1.1695517025975911e-02 -1.3887926154564926e-03 0.0000000000000000e+00  1.1731034563751110e-02 -2.8006188885871231e-03 0.0000000000000000e+00  1.3980027310874339e-02 2.9625352903199552e-03 0.0000000000000000e+00  1.3950763959936545e-02 1.4768022637401896e-03 0.0000000000000000e+00  1.3941680674421069e-02 5.9694904249433154e-06 0.0000000000000000e+00  1.3951437534417556e-02 -1.4653062067216220e-03 0.0000000000000000e+00  1.3980648397053626e-02 -2.9498248040956609e-03 0.0000000000000000e+00  1.6329727882650427e-02 3.0826590571914197e-03 0.0000000000000000e+00  1.6305087413232857e-02 1.5383074408748571e-03 0.0000000000000000e+00  1.6296887552805301e-02 5.6597811716249036e-06 0.0000000000000000e+00  1.6303885791304016e-02 -1.5271925906647982e-03 0.0000000000000000e+00  1.6327761302089867e-02 -3.0711473329541779e-03 0.0000000000000000e+00  1.8752324653304904e-02 3.1805124345862862e-03 0.0000000000000000e+00  1.8732714870321188e-02 1.5888165756858630e-03 0.0000000000000000e+00  1.8726642283261395e-02 5.3273905048329395e-06 0.0000000000000000e+00  1.8733684203033559e-02 -1.5784141629000316e-03 0.0000000000000000e+00  1.8753878653583012e-02 -3.1706525362628448e-03 0.0000000000000000e+00  2.1242355488792608e-02 3.2643940152732192e-03 0.0000000000000000e+00  2.1223385122418878e-02 1.6315265000125495e-03 0.0000000000000000e+00  2.1217829516914598e-02 4.4388211584907993e-06 0.0000000000000000e+00  2.1224278169294730e-02 -1.6226112232541621e-03 0.0000000000000000e+00  2.1242220527988475e-02 -3.2532362867613075e-03 0.0000000000000000e+00  2.3784250425324283e-02 3.3383956373401772e-03 0.0000000000000000e+00  2.3768166229922175e-02 1.6701283075547439e-03 0.0000000000000000e+00  2.3762677094079247e-02 3.9574258100191682e-06 0.0000000000000000e+00  2.3766939323348633e-02 -1.6618495851489948e-03 0.0000000000000000e+00  2.3782592691776440e-02 -3.3288489037200165e-03 0.0000000000000000e+00  2.6380357360632826e-02 3.4097421723646801e-03 0.0000000000000000e+00  2.6363935335233912e-02 1.7054132015209341e-03 0.0000000000000000e+00  2.6359317631941950e-02 3.8382026656386668e-06 0.0000000000000000e+00  2.6363839288094756e-02 -1.6980867438399676e-03 0.0000000000000000e+00  2.6379324753046895e-02 -3.4021462874704728e-03 0.0000000000000000e+00  2.9031614544572773e-02 3.4797792337877241e-03 0.0000000000000000e+00  2.9016437610688787e-02 1.7394463905736786e-03 0.0000000000000000e+00  2.9011762490573547e-02 3.0387899519772423e-06 0.0000000000000000e+00  2.9016174889534174e-02 -1.7332617616112110e-03 0.0000000000000000e+00  2.9030790352689108e-02 -3.4722154148186402e-03 0.0000000000000000e+00  3.1737290569337315e-02 3.5454653329213197e-03 0.0000000000000000e+00  3.1722365337135391e-02 1.7726800303233090e-03 0.0000000000000000e+00  3.1717222505211744e-02 3.1126676482350959e-06 0.0000000000000000e+00  3.1721144521109162e-02 -1.7663418433252385e-03 0.0000000000000000e+00  3.1734923856231563e-02 -3.5380895096577313e-03 0.0000000000000000e+00  3.4491250366776000e-02 3.6080588271290058e-03 0.0000000000000000e+00  3.4476432127106840e-02 1.8048878036560313e-03 0.0000000000000000e+00  3.4472036819096927e-02 4.2994918340633232e-06 0.0000000000000000e+00  3.4475778994364339e-02 -1.7966349168529426e-03 0.0000000000000000e+00  3.4488694566999746e-02 -3.5993687579022205e-03 0.0000000000000000e+00  3.7287872746723620e-02 3.6663153982700453e-03 0.0000000000000000e+00  3.7275920758129674e-02 1.8338353795782122e-03 0.0000000000000000e+00  3.7272349996446373e-02 4.3093746702265224e-06 0.0000000000000000e+00  3.7275411259882346e-02 -1.8246457640053743e-03 0.0000000000000000e+00  3.7286619063715581e-02 -3.6548869916405362e-03 0.0000000000000000e+00  4.0131583505297094e-02 3.7196931006969404e-03 0.0000000000000000e+00  4.0118432666864448e-02 1.8608570410786869e-03 0.0000000000000000e+00  4.0113909339510576e-02 5.8301349337025654e-06 0.0000000000000000e+00  4.0116016884734831e-02 -1.8490852326621494e-03 0.0000000000000000e+00  4.0126454491793688e-02 -3.7059347066433737e-03 0.0000000000000000e+00  4.3010644400218033e-02 3.7686141385271286e-03 0.0000000000000000e+00  4.3000183212850762e-02 1.8856787811324487e-03 0.0000000000000000e+00  4.2996532871543931e-02 7.4755394924674584e-06 0.0000000000000000e+00  4.2998000809641550e-02 -1.8704435062099844e-03 0.0000000000000000e+00  4.3006835945514549e-02 -3.7523453441795068e-03 0.0000000000000000e+00  4.5929049235301583e-02 3.8108529869885373e-03 0.0000000000000000e+00  4.5919162679229221e-02 1.9068732464831272e-03 0.0000000000000000e+00  4.5915758483920474e-02 8.9641002027425531e-06 0.0000000000000000e+00  4.5917582348646187e-02 -1.8889202316198358e-03 0.0000000000000000e+00  4.5925722710513192e-02 -3.7912277814219023e-03 0.0000000000000000e+00  4.8875927675119349e-02 3.8434309550289024e-03 0.0000000000000000e+00  4.8868206579970097e-02 1.9238542034068617e-03 0.0000000000000000e+00  4.8865041393533377e-02 1.0427853726798599e-05 0.0000000000000000e+00  4.8865339778175927e-02 -1.9028982629541594e-03 0.0000000000000000e+00  4.8870825204515342e-02 -3.8203042062458746e-03 0.0000000000000000e+00  5.1838028884489247e-02 3.8627038726275461e-03 0.0000000000000000e+00  5.1833596317999137e-02 1.9351087472404670e-03 0.0000000000000000e+00  5.1831777344709562e-02 1.2133771830618590e-05 0.0000000000000000e+00  5.1831855387268748e-02 -1.9106433690301932e-03 0.0000000000000000e+00  5.1834951669452671e-02 -3.8375811943874966e-03 0.0000000000000000e+00  5.4812172683467386e-02 3.8743396988977809e-03 0.0000000000000000e+00  5.4807550274154987e-02 1.9412266605351202e-03 0.0000000000000000e+00  5.4806556511864529e-02 1.3383023020687567e-05 0.0000000000000000e+00  5.4807025395821746e-02 -1.9138273378160866e-03 0.0000000000000000e+00  5.4809433841764621e-02 -3.8427194371648435e-03 0.0000000000000000e+00  5.7784580703771994e-02 3.8791090131066819e-03 0.0000000000000000e+00  5.7781991171977590e-02 1.9455034099222688e-03 0.0000000000000000e+00  5.7779718835797078e-02 1.5377405691848346e-05 0.0000000000000000e+00  5.7778186466993349e-02 -1.9129723758009938e-03 0.0000000000000000e+00  5.7777658578794105e-02 -3.8421730832613591e-03 0.0000000000000000e+00  </DataArray> 
</PointData> 
</Piece>
</UnstructuredGrid>
</VTKFile>