<?xml version="1.0"?>
<VTKFile type="UnstructuredGrid"  version="0.1"  >
<UnstructuredGrid>
<Piece  NumberOfPoints="135" NumberOfCells="208">
<Points>
<DataArray  type="Float64"  NumberOfComponents="3"  format="ascii">-0.05 0 0  -0.025 0 0  0 0 0  0.02500000000000001 0 0  0.05 0 0  -0.05 0.03846153846153846 0  -0.025 0.03846153846153846 0  0 0.03846153846153846 0  0.02500000000000001 0.03846153846153846 0  0.05 0.03846153846153846 0  -0.05 0.07692307692307693 0  -0.025 0.07692307692307693 0  0 0.07692307692307693 0  0.02500000000000001 0.07692307692307693 0  0.05 0.07692307692307693 0  -0.05 0.1153846153846154 0  -0.025 0.1153846153846154 0  0 0.1153846153846154 0  0.02500000000000001 0.1153846153846154 0  0.05 0.1153846153846154 0  -0.05 0.1538461538461539 0  -0.025 0.1538461538461539 0  0 0.1538461538461539 0  0.02500000000000001 0.1538461538461539 0  0.05 0.1538461538461539 0  -0.05 0.1923076923076923 0  -0.025 0.1923076923076923 0  0 0.1923076923076923 0  0.02500000000000001 0.1923076923076923 0  0.05 0.1923076923076923 0  -0.05 0.2307692307692308 0  -0.025 0.2307692307692308 0  0 0.2307692307692308 0  0.02500000000000001 0.2307692307692308 0  0.05 0.2307692307692308 0  -0.05 0.2692307692307692 0  -0.025 0.2692307692307692 0  0 0.2692307692307692 0  0.02500000000000001 0.2692307692307692 0  0.05 0.2692307692307692 0  -0.05 0.3076923076923077 0  -0.025 0.3076923076923077 0  0 0.3076923076923077 0  0.02500000000000001 0.3076923076923077 0  0.05 0.3076923076923077 0  -0.05 0.3461538461538461 0  -0.025 0.3461538461538461 0  0 0.3461538461538461 0  0.02500000000000001 0.3461538461538461 0  0.05 0.3461538461538461 0  -0.05 0.3846153846153846 0  -0.025 0.3846153846153846 0  0 0.3846153846153846 0  0.02500000000000001 0.3846153846153846 0  0.05 0.3846153846153846 0  -0.05 0.4230769230769231 0  -0.025 0.4230769230769231 0  0 0.4230769230769231 0  0.02500000000000001 0.4230769230769231 0  0.05 0.4230769230769231 0  -0.05 0.4615384615384616 0  -0.025 0.4615384615384616 0  0 0.4615384615384616 0  0.02500000000000001 0.4615384615384616 0  0.05 0.4615384615384616 0  -0.05 0.5 0  -0.025 0.5 0  0 0.5 0  0.02500000000000001 0.5 0  0.05 0.5 0  -0.05 0.5384615384615384 0  -0.025 0.5384615384615384 0  0 0.5384615384615384 0  0.02500000000000001 0.5384615384615384 0  0.05 0.5384615384615384 0  -0.05 0.5769230769230769 0  -0.025 0.5769230769230769 0  0 0.5769230769230769 0  0.02500000000000001 0.5769230769230769 0  0.05 0.5769230769230769 0  -0.05 0.6153846153846154 0  -0.025 0.6153846153846154 0  0 0.6153846153846154 0  0.02500000000000001 0.6153846153846154 0  0.05 0.6153846153846154 0  -0.05 0.6538461538461539 0  -0.025 0.6538461538461539 0  0 0.6538461538461539 0  0.02500000000000001 0.6538461538461539 0  0.05 0.6538461538461539 0  -0.05 0.6923076923076923 0  -0.025 0.6923076923076923 0  0 0.6923076923076923 0  0.02500000000000001 0.6923076923076923 0  0.05 0.6923076923076923 0  -0.05 0.7307692307692307 0  -0.025 0.7307692307692307 0  0 0.7307692307692307 0  0.02500000000000001 0.7307692307692307 0  0.05 0.7307692307692307 0  -0.05 0.7692307692307693 0  -0.025 0.7692307692307693 0  0 0.7692307692307693 0  0.02500000000000001 0.7692307692307693 0  0.05 0.7692307692307693 0  -0.05 0.8076923076923077 0  -0.025 0.8076923076923077 0  0 0.8076923076923077 0  0.02500000000000001 0.8076923076923077 0  0.05 0.8076923076923077 0  -0.05 0.8461538461538461 0  -0.025 0.8461538461538461 0  0 0.8461538461538461 0  0.02500000000000001 0.8461538461538461 0  0.05 0.8461538461538461 0  -0.05 0.8846153846153846 0  -0.025 0.8846153846153846 0  0 0.8846153846153846 0  0.02500000000000001 0.8846153846153846 0  0.05 0.8846153846153846 0  -0.05 0.9230769230769231 0  -0.025 0.9230769230769231 0  0 0.9230769230769231 0  0.02500000000000001 0.9230769230769231 0  0.05 0.9230769230769231 0  -0.05 0.9615384615384616 0  -0.025 0.9615384615384616 0  0 0.9615384615384616 0  0.02500000000000001 0.9615384615384616 0  0.05 0.9615384615384616 0  -0.05 1 0  -0.025 1 0  0 1 0  0.02500000000000001 1 0  0.05 1 0  </DataArray>
</Points>
<Cells>
<DataArray  type="UInt32"  Name="connectivity"  format="ascii">0 1 6  0 5 6  1 2 7  1 6 7  2 3 8  2 7 8  3 4 9  3 8 9  5 6 11  5 10 11  6 7 12  6 11 12  7 8 13  7 12 13  8 9 14  8 13 14  10 11 16  10 15 16  11 12 17  11 16 17  12 13 18  12 17 18  13 14 19  13 18 19  15 16 21  15 20 21  16 17 22  16 21 22  17 18 23  17 22 23  18 19 24  18 23 24  20 21 26  20 25 26  21 22 27  21 26 27  22 23 28  22 27 28  23 24 29  23 28 29  25 26 31  25 30 31  26 27 32  26 31 32  27 28 33  27 32 33  28 29 34  28 33 34  30 31 36  30 35 36  31 32 37  31 36 37  32 33 38  32 37 38  33 34 39  33 38 39  35 36 41  35 40 41  36 37 42  36 41 42  37 38 43  37 42 43  38 39 44  38 43 44  40 41 46  40 45 46  41 42 47  41 46 47  42 43 48  42 47 48  43 44 49  43 48 49  45 46 51  45 50 51  46 47 52  46 51 52  47 48 53  47 52 53  48 49 54  48 53 54  50 51 56  50 55 56  51 52 57  51 56 57  52 53 58  52 57 58  53 54 59  53 58 59  55 56 61  55 60 61  56 57 62  56 61 62  57 58 63  57 62 63  58 59 64  58 63 64  60 61 66  60 65 66  61 62 67  61 66 67  62 63 68  62 67 68  63 64 69  63 68 69  65 66 71  65 70 71  66 67 72  66 71 72  67 68 73  67 72 73  68 69 74  68 73 74  70 71 76  70 75 76  71 72 77  71 76 77  72 73 78  72 77 78  73 74 79  73 78 79  75 76 81  75 80 81  76 77 82  76 81 82  77 78 83  77 82 83  78 79 84  78 83 84  80 81 86  80 85 86  81 82 87  81 86 87  82 83 88  82 87 88  83 84 89  83 88 89  85 86 91  85 90 91  86 87 92  86 91 92  87 88 93  87 92 93  88 89 94  88 93 94  90 91 96  90 95 96  91 92 97  91 96 97  92 93 98  92 97 98  93 94 99  93 98 99  95 96 101  95 100 101  96 97 102  96 101 102  97 98 103  97 102 103  98 99 104  98 103 104  100 101 106  100 105 106  101 102 107  101 106 107  102 103 108  102 107 108  103 104 109  103 108 109  105 106 111  105 110 111  106 107 112  106 111 112  107 108 113  107 112 113  108 109 114  108 113 114  110 111 116  110 115 116  111 112 117  111 116 117  112 113 118  112 117 118  113 114 119  113 118 119  115 116 121  115 120 121  116 117 122  116 121 122  117 118 123  117 122 123  118 119 124  118 123 124  120 121 126  120 125 126  121 122 127  121 126 127  122 123 128  122 127 128  123 124 129  123 128 129  125 126 131  125 130 131  126 127 132  126 131 132  127 128 133  127 132 133  128 129 134  128 133 134  </DataArray>
<DataArray  type="UInt32"  Name="offsets"  format="ascii">3 6 9 12 15 18 21 24 27 30 33 36 39 42 45 48 51 54 57 60 63 66 69 72 75 78 81 84 87 90 93 96 99 102 105 108 111 114 117 120 123 126 129 132 135 138 141 144 147 150 153 156 159 162 165 168 171 174 177 180 183 186 189 192 195 198 201 204 207 210 213 216 219 222 225 228 231 234 237 240 243 246 249 252 255 258 261 264 267 270 273 276 279 282 285 288 291 294 297 300 303 306 309 312 315 318 321 324 327 330 333 336 339 342 345 348 351 354 357 360 363 366 369 372 375 378 381 384 387 390 393 396 399 402 405 408 411 414 417 420 423 426 429 432 435 438 441 444 447 450 453 456 459 462 465 468 471 474 477 480 483 486 489 492 495 498 501 504 507 510 513 516 519 522 525 528 531 534 537 540 543 546 549 552 555 558 561 564 567 570 573 576 579 582 585 588 591 594 597 600 603 606 609 612 615 618 621 624 </DataArray>
<DataArray  type="UInt8"  Name="types"  format="ascii">5 5 5 5 5 5 5 5 5 5 5 5 5 5 5 5 5 5 5 5 5 5 5 5 5 5 5 5 5 5 5 5 5 5 5 5 5 5 5 5 5 5 5 5 5 5 5 5 5 5 5 5 5 5 5 5 5 5 5 5 5 5 5 5 5 5 5 5 5 5 5 5 5 5 5 5 5 5 5 5 5 5 5 5 5 5 5 5 5 5 5 5 5 5 5 5 5 5 5 5 5 5 5 5 5 5 5 5 5 5 5 5 5 5 5 5 5 5 5 5 5 5 5 5 5 5 5 5 5 5 5 5 5 5 5 5 5 5 5 5 5 5 5 5 5 5 5 5 5 5 5 5 5 5 5 5 5 5 5 5 5 5 5 5 5 5 5 5 5 5 5 5 5 5 5 5 5 5 5 5 5 5 5 5 5 5 5 5 5 5 5 5 5 5 5 5 5 5 5 5 5 5 5 5 5 5 5 5 </DataArray>
</Cells>
<PointData  Vectors="Displacement"> 
<DataArray  type="Float64"  Name="Displacement"  NumberOfComponents="3" format="ascii">-4.7410604762921980e-16 7.6100678777395322e-18 0.0000000000000000e+00  0.0000000000000000e+00 0.0000000000000000e+00 0.0000000000000000e+00  0.0000000000000000e+00 0.0000000000000000e+00 0.0000000000000000e+00  -5.6705374421006980e-17 9.5559711072585524e-19 0.0000000000000000e+00  1.7011612326302095e-16 -2.8667913321775661e-18 0.0000000000000000e+00  4.9715065785243932e-04 6.7533582776874970e-04 0.0000000000000000e+00  3.6295680023835469e-04 3.1101101376787755e-04 0.0000000000000000e+00  3.1416873741089307e-04 -2.8597357510263411e-06 0.0000000000000000e+00  3.5783084819049625e-04 -3.1411183364367666e-04 0.0000000000000000e+00  4.9920372775839037e-04 -6.8864289286766690e-04 0.0000000000000000e+00  1.3348545743253845e-03 1.2652371379123528e-03 0.0000000000000000e+00  1.2178684759137613e-03 6.0875425999720018e-04 0.0000000000000000e+00  1.1795006309723228e-03 -8.0307658695367750e-06 0.0000000000000000e+00  1.2216109217033269e-03 -6.2561995037400226e-04 0.0000000000000000e+00  1.3425377106638758e-03 -1.2827815512325516e-03 0.0000000000000000e+00  2.5959889747224217e-03 1.7823427038349648e-03 0.0000000000000000e+00  2.4937915156299393e-03 8.6743116536955268e-04 0.0000000000000000e+00  2.4600974279422121e-03 -1.2965388028563904e-05 0.0000000000000000e+00  2.4960478670863462e-03 -8.9389791212695897e-04 0.0000000000000000e+00  2.6013810856581956e-03 -1.8080316457580042e-03 0.0000000000000000e+00  4.2164644597309899e-03 2.2335792640970470e-03 0.0000000000000000e+00  4.1256246169231832e-03 1.0944643675750382e-03 0.0000000000000000e+00  4.0960875283041652e-03 -1.7437979640382299e-05 0.0000000000000000e+00  4.1286840193341745e-03 -1.1294459363425809e-03 0.0000000000000000e+00  4.2223043881574555e-03 -2.2684309511433365e-03 0.0000000000000000e+00  6.1540063448049642e-03 2.6352449524685139e-03 0.0000000000000000e+00  6.0736296735171367e-03 1.2953390062816648e-03 0.0000000000000000e+00  6.0474357856627808e-03 -2.2547490762990853e-05 0.0000000000000000e+00  6.0767553599576987e-03 -1.3400525856338741e-03 0.0000000000000000e+00  6.1603734452996377e-03 -2.6784977545154026e-03 0.0000000000000000e+00  8.3831426296107452e-03 2.9991876231923609e-03 0.0000000000000000e+00  8.3080567910695305e-03 1.4774527391989468e-03 0.0000000000000000e+00  8.2831869193962064e-03 -2.6763909030322517e-05 0.0000000000000000e+00  8.3091839348320602e-03 -1.5297119647494114e-03 0.0000000000000000e+00  8.3852983305024217e-03 -3.0497819337810214e-03 0.0000000000000000e+00  1.0871230955366216e-02 3.3317469184542831e-03 0.0000000000000000e+00  1.0804663968707235e-02 1.6434908940360846e-03 0.0000000000000000e+00  1.0782867076699940e-02 -2.9407271448448061e-05 0.0000000000000000e+00  1.0806160937284410e-02 -1.7024637438448104e-03 0.0000000000000000e+00  1.0875538121344591e-02 -3.3909092728462800e-03 0.0000000000000000e+00  1.3610383361721068e-02 3.6367760334449300e-03 0.0000000000000000e+00  1.3548186767675484e-02 1.7937509515569042e-03 0.0000000000000000e+00  1.3528925044276436e-02 -3.2747086122621509e-05 0.0000000000000000e+00  1.3550877137530028e-02 -1.8598062339571847e-03 0.0000000000000000e+00  1.3614337652648759e-02 -3.7022409851841616e-03 0.0000000000000000e+00  1.6571930069913463e-02 3.9131353355428104e-03 0.0000000000000000e+00  1.6516249788272899e-02 1.9310747387715687e-03 0.0000000000000000e+00  1.6497778773828822e-02 -3.6205329445315900e-05 0.0000000000000000e+00  1.6516883245018210e-02 -2.0027747918426615e-03 0.0000000000000000e+00  1.6573965154319567e-02 -3.9830935161598658e-03 0.0000000000000000e+00  1.9735443726389853e-02 4.1621416037716354e-03 0.0000000000000000e+00  1.9684695815322697e-02 2.0558143984596273e-03 0.0000000000000000e+00  1.9667906397446023e-02 -3.7491602884047715e-05 0.0000000000000000e+00  1.9685105506101856e-02 -2.1313596055088451e-03 0.0000000000000000e+00  1.9736923562426147e-02 -4.2381037131332400e-03 0.0000000000000000e+00  2.3080032297819051e-02 4.3891915942396312e-03 0.0000000000000000e+00  2.3033114180145319e-02 2.1690194143248447e-03 0.0000000000000000e+00  2.3018158787048444e-02 -3.9437647387906008e-05 0.0000000000000000e+00  2.3034298080422008e-02 -2.2480592722991699e-03 0.0000000000000000e+00  2.3081478415750260e-02 -4.4672323528223415e-03 0.0000000000000000e+00  2.6589319751981443e-02 4.5955058042957001e-03 0.0000000000000000e+00  2.6547961698289015e-02 2.2716885190525640e-03 0.0000000000000000e+00  2.6533860756463818e-02 -4.0778058370504659e-05 0.0000000000000000e+00  2.6547149360335125e-02 -2.3529213825586853e-03 0.0000000000000000e+00  2.6588968404367745e-02 -4.6752403700869426e-03 0.0000000000000000e+00  3.0252906891653587e-02 4.7808989128104258e-03 0.0000000000000000e+00  3.0214091196499569e-02 2.3646511278899445e-03 0.0000000000000000e+00  3.0200804808666801e-02 -4.0091556780072628e-05 0.0000000000000000e+00  3.0212254358330828e-02 -2.4459947437161724e-03 0.0000000000000000e+00  3.0250153603373971e-02 -4.8627676023534454e-03 0.0000000000000000e+00  3.4046509210118286e-02 4.9467371414673410e-03 0.0000000000000000e+00  3.4013335086381075e-02 2.4475895127378227e-03 0.0000000000000000e+00  3.4002547717021846e-02 -4.0102683820565334e-05 0.0000000000000000e+00  3.4014023309052330e-02 -2.5285276114790215e-03 0.0000000000000000e+00  3.4047398111294987e-02 -5.0284957830841930e-03 0.0000000000000000e+00  3.7964795930905737e-02 5.0930508299621051e-03 0.0000000000000000e+00  3.7934660509464951e-02 2.5209669341341202e-03 0.0000000000000000e+00  3.7924648419600797e-02 -3.9838216783226495e-05 0.0000000000000000e+00  3.7933747782454098e-02 -2.6011364112466734e-03 0.0000000000000000e+00  3.7962642113735526e-02 -5.1718265603616261e-03 0.0000000000000000e+00  4.1981146675870447e-02 5.2183054259875112e-03 0.0000000000000000e+00  4.1955203259591199e-02 2.5853884085098619e-03 0.0000000000000000e+00  4.1945918282103263e-02 -3.8347879690100173e-05 0.0000000000000000e+00  4.1953484505695582e-02 -2.6623692533075680e-03 0.0000000000000000e+00  4.1978274041761326e-02 -5.2952682541869021e-03 0.0000000000000000e+00  4.6082587856582591e-02 5.3251540064530485e-03 0.0000000000000000e+00  4.6061356228035269e-02 2.6401138301899167e-03 0.0000000000000000e+00  4.6054302161432845e-02 -3.7009621874118299e-05 0.0000000000000000e+00  4.6061032473485371e-02 -2.7143772515866847e-03 0.0000000000000000e+00  4.6081837591872628e-02 -5.3996792815314693e-03 0.0000000000000000e+00  5.0261388639906784e-02 5.4166073762224971e-03 0.0000000000000000e+00  5.0241262807864277e-02 2.6860200797223059e-03 0.0000000000000000e+00  5.0234306276237518e-02 -3.5877045630830713e-05 0.0000000000000000e+00  5.0239547590588532e-02 -2.7579019679364030e-03 0.0000000000000000e+00  5.0257370477684214e-02 -5.4861753989465609e-03 0.0000000000000000e+00  5.4495178143228837e-02 5.4934354690971982e-03 0.0000000000000000e+00  5.4479385751344311e-02 2.7270529920863490e-03 0.0000000000000000e+00  5.4473412575538879e-02 -3.3649668740933292e-05 0.0000000000000000e+00  5.4477598104975079e-02 -2.7945908693372688e-03 0.0000000000000000e+00  5.4492793889190337e-02 -5.5619249131726644e-03 0.0000000000000000e+00  5.8786481048528280e-02 5.5616237001970591e-03 0.0000000000000000e+00  5.8770928936142469e-02 2.7617321520059441e-03 0.0000000000000000e+00  5.8766022713194657e-02 -3.1843604719070825e-05 0.0000000000000000e+00  5.8770618887584399e-02 -2.8264191798786117e-03 0.0000000000000000e+00  5.8784464669640914e-02 -5.6262379962575201e-03 0.0000000000000000e+00  6.3118842778634901e-02 5.6190081156674834e-03 0.0000000000000000e+00  6.3106986734925638e-02 2.7915958223540104e-03 0.0000000000000000e+00  6.3103270304544934e-02 -3.0805251585664744e-05 0.0000000000000000e+00  6.3106986204884183e-02 -2.8533896725968185e-03 0.0000000000000000e+00  6.3118161711115298e-02 -5.6798034934335221e-03 0.0000000000000000e+00  6.7494875368986199e-02 5.6667384652138398e-03 0.0000000000000000e+00  6.7484858797236730e-02 2.8157863823025748e-03 0.0000000000000000e+00  6.7481648749303888e-02 -2.8889206836939372e-05 0.0000000000000000e+00  6.7483675625004375e-02 -2.8739735978587687e-03 0.0000000000000000e+00  6.7492416170803302e-02 -5.7247600465362390e-03 0.0000000000000000e+00  7.1901836840539399e-02 5.7035165576511081e-03 0.0000000000000000e+00  7.1893735503305314e-02 2.8343015993894183e-03 0.0000000000000000e+00  7.1891737029221470e-02 -2.7273510449169540e-05 0.0000000000000000e+00  7.1894299644417722e-02 -2.8894068848640759e-03 0.0000000000000000e+00  7.1901631070622488e-02 -5.7574918606750980e-03 0.0000000000000000e+00  7.6331611855209355e-02 5.7279153407537847e-03 0.0000000000000000e+00  7.6327192970853927e-02 2.8470857835147315e-03 0.0000000000000000e+00  7.6325973185985121e-02 -2.6286178968557946e-05 0.0000000000000000e+00  7.6326906709798012e-02 -2.8997078672751714e-03 0.0000000000000000e+00  7.6331023865425382e-02 -5.7786914658299899e-03 0.0000000000000000e+00  8.0777716350718093e-02 5.7411865512450918e-03 0.0000000000000000e+00  8.0772331517828699e-02 2.8554094480625642e-03 0.0000000000000000e+00  8.0769836581169652e-02 -2.4038073898911874e-05 0.0000000000000000e+00  8.0770095358769375e-02 -2.9048311460785170e-03 0.0000000000000000e+00  8.0773695747926436e-02 -5.7883900369067884e-03 0.0000000000000000e+00  8.5215112599635864e-02 5.7451068090670892e-03 0.0000000000000000e+00  8.5213017275359237e-02 2.8610759312541964e-03 0.0000000000000000e+00  8.5212518923567529e-02 -2.1244563551177622e-05 0.0000000000000000e+00  8.5212479626799328e-02 -2.9049807279507675e-03 0.0000000000000000e+00  8.5212654446720604e-02 -5.7906658694030621e-03 0.0000000000000000e+00  </DataArray> 
</PointData> 
</Piece>
</UnstructuredGrid>
</VTKFile>