<?xml version="1.0"?>
<VTKFile type="UnstructuredGrid"  version="0.1"  >
<UnstructuredGrid>
<Piece  NumberOfPoints="135" NumberOfCells="208">
<Points>
<DataArray  type="Float64"  NumberOfComponents="3"  format="ascii">-0.05 0 0  -0.025 0 0  0 0 0  0.02500000000000001 0 0  0.05 0 0  -0.05 0.03846153846153846 0  -0.025 0.03846153846153846 0  0 0.03846153846153846 0  0.02500000000000001 0.03846153846153846 0  0.05 0.03846153846153846 0  -0.05 0.07692307692307693 0  -0.025 0.07692307692307693 0  0 0.07692307692307693 0  0.02500000000000001 0.07692307692307693 0  0.05 0.07692307692307693 0  -0.05 0.1153846153846154 0  -0.025 0.1153846153846154 0  0 0.1153846153846154 0  0.02500000000000001 0.1153846153846154 0  0.05 0.1153846153846154 0  -0.05 0.1538461538461539 0  -0.025 0.1538461538461539 0  0 0.1538461538461539 0  0.02500000000000001 0.1538461538461539 0  0.05 0.1538461538461539 0  -0.05 0.1923076923076923 0  -0.025 0.1923076923076923 0  0 0.1923076923076923 0  0.02500000000000001 0.1923076923076923 0  0.05 0.1923076923076923 0  -0.05 0.2307692307692308 0  -0.025 0.2307692307692308 0  0 0.2307692307692308 0  0.02500000000000001 0.2307692307692308 0  0.05 0.2307692307692308 0  -0.05 0.2692307692307692 0  -0.025 0.2692307692307692 0  0 0.2692307692307692 0  0.02500000000000001 0.2692307692307692 0  0.05 0.2692307692307692 0  -0.05 0.3076923076923077 0  -0.025 0.3076923076923077 0  0 0.3076923076923077 0  0.02500000000000001 0.3076923076923077 0  0.05 0.3076923076923077 0  -0.05 0.3461538461538461 0  -0.025 0.3461538461538461 0  0 0.3461538461538461 0  0.02500000000000001 0.3461538461538461 0  0.05 0.3461538461538461 0  -0.05 0.3846153846153846 0  -0.025 0.3846153846153846 0  0 0.3846153846153846 0  0.02500000000000001 0.3846153846153846 0  0.05 0.3846153846153846 0  -0.05 0.4230769230769231 0  -0.025 0.4230769230769231 0  0 0.4230769230769231 0  0.02500000000000001 0.4230769230769231 0  0.05 0.4230769230769231 0  -0.05 0.4615384615384616 0  -0.025 0.4615384615384616 0  0 0.4615384615384616 0  0.02500000000000001 0.4615384615384616 0  0.05 0.4615384615384616 0  -0.05 0.5 0  -0.025 0.5 0  0 0.5 0  0.02500000000000001 0.5 0  0.05 0.5 0  -0.05 0.5384615384615384 0  -0.025 0.5384615384615384 0  0 0.5384615384615384 0  0.02500000000000001 0.5384615384615384 0  0.05 0.5384615384615384 0  -0.05 0.5769230769230769 0  -0.025 0.5769230769230769 0  0 0.5769230769230769 0  0.02500000000000001 0.5769230769230769 0  0.05 0.5769230769230769 0  -0.05 0.6153846153846154 0  -0.025 0.6153846153846154 0  0 0.6153846153846154 0  0.02500000000000001 0.6153846153846154 0  0.05 0.6153846153846154 0  -0.05 0.6538461538461539 0  -0.025 0.6538461538461539 0  0 0.6538461538461539 0  0.02500000000000001 0.6538461538461539 0  0.05 0.6538461538461539 0  -0.05 0.6923076923076923 0  -0.025 0.6923076923076923 0  0 0.6923076923076923 0  0.02500000000000001 0.6923076923076923 0  0.05 0.6923076923076923 0  -0.05 0.7307692307692307 0  -0.025 0.7307692307692307 0  0 0.7307692307692307 0  0.02500000000000001 0.7307692307692307 0  0.05 0.7307692307692307 0  -0.05 0.7692307692307693 0  -0.025 0.7692307692307693 0  0 0.7692307692307693 0  0.02500000000000001 0.7692307692307693 0  0.05 0.7692307692307693 0  -0.05 0.8076923076923077 0  -0.025 0.8076923076923077 0  0 0.8076923076923077 0  0.02500000000000001 0.8076923076923077 0  0.05 0.8076923076923077 0  -0.05 0.8461538461538461 0  -0.025 0.8461538461538461 0  0 0.8461538461538461 0  0.02500000000000001 0.8461538461538461 0  0.05 0.8461538461538461 0  -0.05 0.8846153846153846 0  -0.025 0.8846153846153846 0  0 0.8846153846153846 0  0.02500000000000001 0.8846153846153846 0  0.05 0.8846153846153846 0  -0.05 0.9230769230769231 0  -0.025 0.9230769230769231 0  0 0.9230769230769231 0  0.02500000000000001 0.9230769230769231 0  0.05 0.9230769230769231 0  -0.05 0.9615384615384616 0  -0.025 0.9615384615384616 0  0 0.9615384615384616 0  0.02500000000000001 0.9615384615384616 0  0.05 0.9615384615384616 0  -0.05 1 0  -0.025 1 0  0 1 0  0.02500000000000001 1 0  0.05 1 0  </DataArray>
</Points>
<Cells>
<DataArray  type="UInt32"  Name="connectivity"  format="ascii">0 1 6  0 5 6  1 2 7  1 6 7  2 3 8  2 7 8  3 4 9  3 8 9  5 6 11  5 10 11  6 7 12  6 11 12  7 8 13  7 12 13  8 9 14  8 13 14  10 11 16  10 15 16  11 12 17  11 16 17  12 13 18  12 17 18  13 14 19  13 18 19  15 16 21  15 20 21  16 17 22  16 21 22  17 18 23  17 22 23  18 19 24  18 23 24  20 21 26  20 25 26  21 22 27  21 26 27  22 23 28  22 27 28  23 24 29  23 28 29  25 26 31  25 30 31  26 27 32  26 31 32  27 28 33  27 32 33  28 29 34  28 33 34  30 31 36  30 35 36  31 32 37  31 36 37  32 33 38  32 37 38  33 34 39  33 38 39  35 36 41  35 40 41  36 37 42  36 41 42  37 38 43  37 42 43  38 39 44  38 43 44  40 41 46  40 45 46  41 42 47  41 46 47  42 43 48  42 47 48  43 44 49  43 48 49  45 46 51  45 50 51  46 47 52  46 51 52  47 48 53  47 52 53  48 49 54  48 53 54  50 51 56  50 55 56  51 52 57  51 56 57  52 53 58  52 57 58  53 54 59  53 58 59  55 56 61  55 60 61  56 57 62  56 61 62  57 58 63  57 62 63  58 59 64  58 63 64  60 61 66  60 65 66  61 62 67  61 66 67  62 63 68  62 67 68  63 64 69  63 68 69  65 66 71  65 70 71  66 67 72  66 71 72  67 68 73  67 72 73  68 69 74  68 73 74  70 71 76  70 75 76  71 72 77  71 76 77  72 73 78  72 77 78  73 74 79  73 78 79  75 76 81  75 80 81  76 77 82  76 81 82  77 78 83  77 82 83  78 79 84  78 83 84  80 81 86  80 85 86  81 82 87  81 86 87  82 83 88  82 87 88  83 84 89  83 88 89  85 86 91  85 90 91  86 87 92  86 91 92  87 88 93  87 92 93  88 89 94  88 93 94  90 91 96  90 95 96  91 92 97  91 96 97  92 93 98  92 97 98  93 94 99  93 98 99  95 96 101  95 100 101  96 97 102  96 101 102  97 98 103  97 102 103  98 99 104  98 103 104  100 101 106  100 105 106  101 102 107  101 106 107  102 103 108  102 107 108  103 104 109  103 108 109  105 106 111  105 110 111  106 107 112  106 111 112  107 108 113  107 112 113  108 109 114  108 113 114  110 111 116  110 115 116  111 112 117  111 116 117  112 113 118  112 117 118  113 114 119  113 118 119  115 116 121  115 120 121  116 117 122  116 121 122  117 118 123  117 122 123  118 119 124  118 123 124  120 121 126  120 125 126  121 122 127  121 126 127  122 123 128  122 127 128  123 124 129  123 128 129  125 126 131  125 130 131  126 127 132  126 131 132  127 128 133  127 132 133  128 129 134  128 133 134  </DataArray>
<DataArray  type="UInt32"  Name="offsets"  format="ascii">3 6 9 12 15 18 21 24 27 30 33 36 39 42 45 48 51 54 57 60 63 66 69 72 75 78 81 84 87 90 93 96 99 102 105 108 111 114 117 120 123 126 129 132 135 138 141 144 147 150 153 156 159 162 165 168 171 174 177 180 183 186 189 192 195 198 201 204 207 210 213 216 219 222 225 228 231 234 237 240 243 246 249 252 255 258 261 264 267 270 273 276 279 282 285 288 291 294 297 300 303 306 309 312 315 318 321 324 327 330 333 336 339 342 345 348 351 354 357 360 363 366 369 372 375 378 381 384 387 390 393 396 399 402 405 408 411 414 417 420 423 426 429 432 435 438 441 444 447 450 453 456 459 462 465 468 471 474 477 480 483 486 489 492 495 498 501 504 507 510 513 516 519 522 525 528 531 534 537 540 543 546 549 552 555 558 561 564 567 570 573 576 579 582 585 588 591 594 597 600 603 606 609 612 615 618 621 624 </DataArray>
<DataArray  type="UInt8"  Name="types"  format="ascii">5 5 5 5 5 5 5 5 5 5 5 5 5 5 5 5 5 5 5 5 5 5 5 5 5 5 5 5 5 5 5 5 5 5 5 5 5 5 5 5 5 5 5 5 5 5 5 5 5 5 5 5 5 5 5 5 5 5 5 5 5 5 5 5 5 5 5 5 5 5 5 5 5 5 5 5 5 5 5 5 5 5 5 5 5 5 5 5 5 5 5 5 5 5 5 5 5 5 5 5 5 5 5 5 5 5 5 5 5 5 5 5 5 5 5 5 5 5 5 5 5 5 5 5 5 5 5 5 5 5 5 5 5 5 5 5 5 5 5 5 5 5 5 5 5 5 5 5 5 5 5 5 5 5 5 5 5 5 5 5 5 5 5 5 5 5 5 5 5 5 5 5 5 5 5 5 5 5 5 5 5 5 5 5 5 5 5 5 5 5 5 5 5 5 5 5 5 5 5 5 5 5 5 5 5 5 5 5 </DataArray>
</Cells>
<PointData  Vectors="Displacement"> 
<DataArray  type="Float64"  Name="Displacement"  NumberOfComponents="3" format="ascii">-4.7159382576065690e-16 6.9247916295058040e-18 0.0000000000000000e+00  0.0000000000000000e+00 0.0000000000000000e+00 0.0000000000000000e+00  0.0000000000000000e+00 0.0000000000000000e+00 0.0000000000000000e+00  -5.7950895813629643e-17 1.3163852752816863e-18 0.0000000000000000e+00  1.7385268744088894e-16 -3.9491558258450589e-18 0.0000000000000000e+00  4.8305479272702997e-04 7.2484599610986539e-04 0.0000000000000000e+00  3.3075844612116497e-04 3.4380718176117307e-04 0.0000000000000000e+00  2.7448018155318456e-04 -4.2582933885862769e-06 0.0000000000000000e+00  3.2314432319799293e-04 -3.4925300514741564e-04 0.0000000000000000e+00  4.8086317129545264e-04 -7.3985837687211016e-04 0.0000000000000000e+00  1.3566616566849541e-03 1.4102855494414657e-03 0.0000000000000000e+00  1.2159592511057672e-03 6.8903077225266295e-04 0.0000000000000000e+00  1.1696373788704537e-03 -9.1099086242165285e-06 0.0000000000000000e+00  1.2189048892895008e-03 -7.0853615161611892e-04 0.0000000000000000e+00  1.3623044925774035e-03 -1.4331048307204117e-03 0.0000000000000000e+00  2.7505154354943435e-03 2.0567159675423845e-03 0.0000000000000000e+00  2.6198560511495931e-03 1.0088586786174733e-03 0.0000000000000000e+00  2.5774726502688122e-03 -1.5928359847668984e-05 0.0000000000000000e+00  2.6235970820595628e-03 -1.0409757632581062e-03 0.0000000000000000e+00  2.7578082204010933e-03 -2.0883198464133985e-03 0.0000000000000000e+00  4.6261993522164488e-03 2.6581276788600464e-03 0.0000000000000000e+00  4.5038027254821261e-03 1.3076358703583281e-03 0.0000000000000000e+00  4.4635458528246687e-03 -2.1667855201404120e-05 0.0000000000000000e+00  4.5059336474928087e-03 -1.3508877729013263e-03 0.0000000000000000e+00  4.6309727932018138e-03 -2.7002887541740135e-03 0.0000000000000000e+00  6.9474149511698701e-03 3.2196279739667385e-03 0.0000000000000000e+00  6.8338003945091581e-03 1.5868536563509266e-03 0.0000000000000000e+00  6.7959159626759316e-03 -2.6033702606460316e-05 0.0000000000000000e+00  6.8354229475651859e-03 -1.6395661183472685e-03 0.0000000000000000e+00  6.9521423844386906e-03 -3.2731999391515196e-03 0.0000000000000000e+00  9.6918339482371402e-03 3.7448565383865909e-03 0.0000000000000000e+00  9.5847139744620977e-03 1.8473297940580704e-03 0.0000000000000000e+00  9.5498220379886568e-03 -3.0952027787926085e-05 0.0000000000000000e+00  9.5872541149843137e-03 -1.9095491119739893e-03 0.0000000000000000e+00  9.6967315249712905e-03 -3.8081906586143678e-03 0.0000000000000000e+00  1.2826320158153780e-02 4.2327819728056569e-03 0.0000000000000000e+00  1.2728619257038267e-02 2.0882921422965203e-03 0.0000000000000000e+00  1.2696702352701181e-02 -3.5714560923626710e-05 0.0000000000000000e+00  1.2731210784383986e-02 -2.1602905114019078e-03 0.0000000000000000e+00  1.2831885633601313e-02 -4.3037246474466693e-03 0.0000000000000000e+00  1.6328833832181536e-02 4.6820187018344686e-03 0.0000000000000000e+00  1.6236879293721616e-02 2.3122266125261822e-03 0.0000000000000000e+00  1.6205865831282529e-02 -3.9015716277240521e-05 0.0000000000000000e+00  1.6236830738209806e-02 -2.3911208309173003e-03 0.0000000000000000e+00  1.6330125706621824e-02 -4.7614528435066346e-03 0.0000000000000000e+00  2.0156858762966454e-02 5.0960542626740483e-03 0.0000000000000000e+00  2.0072990032100460e-02 2.5186214579328457e-03 0.0000000000000000e+00  2.0045700727281283e-02 -4.2466777647625659e-05 0.0000000000000000e+00  2.0075109862709870e-02 -2.6041336882338989e-03 0.0000000000000000e+00  2.0160856123873798e-02 -5.1823796445252179e-03 0.0000000000000000e+00  2.4292739785078787e-02 5.4796986363670362e-03 0.0000000000000000e+00  2.4214869399214713e-02 2.7088774172780200e-03 0.0000000000000000e+00  2.4188977892859731e-02 -4.6357706110258402e-05 0.0000000000000000e+00  2.4216047108582786e-02 -2.8012596735791343e-03 0.0000000000000000e+00  2.4295823504593823e-02 -5.5710825035041080e-03 0.0000000000000000e+00  2.8711914322572453e-02 5.8343757525812058e-03 0.0000000000000000e+00  2.8638443110908796e-02 2.8863244414520425e-03 0.0000000000000000e+00  2.8613543077167670e-02 -4.8740682177423007e-05 0.0000000000000000e+00  2.8638456793105817e-02 -2.9842048564169702e-03 0.0000000000000000e+00  2.8712854187953992e-02 -5.9322617813034554e-03 0.0000000000000000e+00  3.3390571991643747e-02 6.1662661812507645e-03 0.0000000000000000e+00  3.3323156688201030e-02 3.0514928530841106e-03 0.0000000000000000e+00  3.3301283875230757e-02 -5.1411193453332346e-05 0.0000000000000000e+00  3.3325084215876898e-02 -3.1545976577210589e-03 0.0000000000000000e+00  3.3394242288272105e-02 -6.2703538510102174e-03 0.0000000000000000e+00  3.8321707287763053e-02 6.4779246281164099e-03 0.0000000000000000e+00  3.8257244462950812e-02 3.2054699617862815e-03 0.0000000000000000e+00  3.8236495320299949e-02 -5.5416682732461650e-05 0.0000000000000000e+00  3.8259043279727789e-02 -3.3153434686691414e-03 0.0000000000000000e+00  3.8324729212171345e-02 -6.5858778341612205e-03 0.0000000000000000e+00  4.3480703849312782e-02 6.7672787560693450e-03 0.0000000000000000e+00  4.3422256670757137e-02 3.3489742595652927e-03 0.0000000000000000e+00  4.3402626757137491e-02 -5.7932228899014950e-05 0.0000000000000000e+00  4.3422821839927267e-02 -3.4638769589712794e-03 0.0000000000000000e+00  4.3482786826837858e-02 -6.8807511708154773e-03 0.0000000000000000e+00  4.8858705076320431e-02 7.0349167422941779e-03 0.0000000000000000e+00  4.8803491066957985e-02 3.4823588738955879e-03 0.0000000000000000e+00  4.8785127783055632e-02 -5.9709258235673602e-05 0.0000000000000000e+00  4.8803908648701801e-02 -3.6015713801207114e-03 0.0000000000000000e+00  4.8860016769793922e-02 -7.1542158020319801e-03 0.0000000000000000e+00  5.4434662756099414e-02 7.2832182232511842e-03 0.0000000000000000e+00  5.4384311656057734e-02 3.6045153324489741e-03 0.0000000000000000e+00  5.4368351118730299e-02 -6.2492533300402168e-05 0.0000000000000000e+00  5.4386133065753052e-02 -3.7292525970367973e-03 0.0000000000000000e+00  5.4437981717583156e-02 -7.4066562151523562e-03 0.0000000000000000e+00  6.0199307389525968e-02 7.5111072465281143e-03 0.0000000000000000e+00  6.0153473731673700e-02 3.7169597216716137e-03 0.0000000000000000e+00  6.0137747403666647e-02 -6.4573765717997181e-05 0.0000000000000000e+00  6.0152863677208630e-02 -3.8456518801807276e-03 0.0000000000000000e+00  6.0199670857474581e-02 -7.6388133503572922e-03 0.0000000000000000e+00  6.6133248995852628e-02 7.7155492786277619e-03 0.0000000000000000e+00  6.6091520566696496e-02 3.8183645673700189e-03 0.0000000000000000e+00  6.6077789559653974e-02 -6.5816437338264989e-05 0.0000000000000000e+00  6.6092133266163311e-02 -3.9502893301105119e-03 0.0000000000000000e+00  6.6134485141419341e-02 -7.8475751202242445e-03 0.0000000000000000e+00  7.2213937167172337e-02 7.8947855289279566e-03 0.0000000000000000e+00  7.2178995048108749e-02 3.9069490303047776e-03 0.0000000000000000e+00  7.2167627037065904e-02 -6.7805082795794328e-05 0.0000000000000000e+00  7.2180340136076701e-02 -4.0419831475729936e-03 0.0000000000000000e+00  7.2216245039120927e-02 -8.0283685277263758e-03 0.0000000000000000e+00  7.8427370628867579e-02 8.0493705606915766e-03 0.0000000000000000e+00  7.8395226032998991e-02 3.9840949870106630e-03 0.0000000000000000e+00  7.8383871852300474e-02 -6.8740583563486199e-05 0.0000000000000000e+00  7.8393455930683892e-02 -4.1207864417066985e-03 0.0000000000000000e+00  7.8424905442078655e-02 -8.1835468176735086e-03 0.0000000000000000e+00  8.4744662710626362e-02 8.1825697955328902e-03 0.0000000000000000e+00  8.4717998967208330e-02 4.0510291107305604e-03 0.0000000000000000e+00  8.4708895390354727e-02 -6.8577442547673086e-05 0.0000000000000000e+00  8.4717553700790121e-02 -4.1881880683030514e-03 0.0000000000000000e+00  8.4744276768879370e-02 -8.3198395686557309e-03 0.0000000000000000e+00  9.1162345016300994e-02 8.2984888440963429e-03 0.0000000000000000e+00  9.1139345844434463e-02 4.1076718449330049e-03 0.0000000000000000e+00  9.1131663059034446e-02 -6.9699125641234353e-05 0.0000000000000000e+00  9.1138683419261762e-02 -4.2459881020530197e-03 0.0000000000000000e+00  9.1161187040759609e-02 -8.4343973190771637e-03 0.0000000000000000e+00  9.7663206612873685e-02 8.3911554758659603e-03 0.0000000000000000e+00  9.7645128593770114e-02 4.1532690604566555e-03 0.0000000000000000e+00  9.7638386797502377e-02 -6.9103907963711261e-05 0.0000000000000000e+00  9.7642839701238410e-02 -4.2910262697063040e-03 0.0000000000000000e+00  9.7660038464673665e-02 -8.5262144612234265e-03 0.0000000000000000e+00  1.0422445100027242e-01 8.4537032251178219e-03 0.0000000000000000e+00  1.0421362996675514e-01 4.1857989956182789e-03 0.0000000000000000e+00  1.0420935132335517e-01 -6.7496312639985778e-05 0.0000000000000000e+00  1.0421162487938931e-01 -4.3203705314668519e-03 0.0000000000000000e+00  1.0422137305507848e-01 -8.5880301377407250e-03 0.0000000000000000e+00  1.1082000161202835e-01 8.4852568040181750e-03 0.0000000000000000e+00  1.1081293907536170e-01 4.2032459763797526e-03 0.0000000000000000e+00  1.1081016803061201e-01 -6.6650962524438591e-05 0.0000000000000000e+00  1.1081193424641293e-01 -4.3354823072298161e-03 0.0000000000000000e+00  1.1081790046660109e-01 -8.6140071291186462e-03 0.0000000000000000e+00  1.1741125566783887e-01 8.4921077520728021e-03 0.0000000000000000e+00  1.1740776829288317e-01 4.2112326125613581e-03 0.0000000000000000e+00  1.1740438294990642e-01 -6.4461540764212385e-05 0.0000000000000000e+00  1.1740466802556580e-01 -4.3386967064124723e-03 0.0000000000000000e+00  1.1740630072707604e-01 -8.6175670486039954e-03 0.0000000000000000e+00  </DataArray> 
</PointData> 
</Piece>
</UnstructuredGrid>
</VTKFile>