<?xml version="1.0"?>
<VTKFile type="UnstructuredGrid"  version="0.1"  >
<UnstructuredGrid>
<Piece  NumberOfPoints="135" NumberOfCells="208">
<Points>
<DataArray  type="Float64"  NumberOfComponents="3"  format="ascii">-0.05 0 0  -0.025 0 0  0 0 0  0.02500000000000001 0 0  0.05 0 0  -0.05 0.03846153846153846 0  -0.025 0.03846153846153846 0  0 0.03846153846153846 0  0.02500000000000001 0.03846153846153846 0  0.05 0.03846153846153846 0  -0.05 0.07692307692307693 0  -0.025 0.07692307692307693 0  0 0.07692307692307693 0  0.02500000000000001 0.07692307692307693 0  0.05 0.07692307692307693 0  -0.05 0.1153846153846154 0  -0.025 0.1153846153846154 0  0 0.1153846153846154 0  0.02500000000000001 0.1153846153846154 0  0.05 0.1153846153846154 0  -0.05 0.1538461538461539 0  -0.025 0.1538461538461539 0  0 0.1538461538461539 0  0.02500000000000001 0.1538461538461539 0  0.05 0.1538461538461539 0  -0.05 0.1923076923076923 0  -0.025 0.1923076923076923 0  0 0.1923076923076923 0  0.02500000000000001 0.1923076923076923 0  0.05 0.1923076923076923 0  -0.05 0.2307692307692308 0  -0.025 0.2307692307692308 0  0 0.2307692307692308 0  0.02500000000000001 0.2307692307692308 0  0.05 0.2307692307692308 0  -0.05 0.2692307692307692 0  -0.025 0.2692307692307692 0  0 0.2692307692307692 0  0.02500000000000001 0.2692307692307692 0  0.05 0.2692307692307692 0  -0.05 0.3076923076923077 0  -0.025 0.3076923076923077 0  0 0.3076923076923077 0  0.02500000000000001 0.3076923076923077 0  0.05 0.3076923076923077 0  -0.05 0.3461538461538461 0  -0.025 0.3461538461538461 0  0 0.3461538461538461 0  0.02500000000000001 0.3461538461538461 0  0.05 0.3461538461538461 0  -0.05 0.3846153846153846 0  -0.025 0.3846153846153846 0  0 0.3846153846153846 0  0.02500000000000001 0.3846153846153846 0  0.05 0.3846153846153846 0  -0.05 0.4230769230769231 0  -0.025 0.4230769230769231 0  0 0.4230769230769231 0  0.02500000000000001 0.4230769230769231 0  0.05 0.4230769230769231 0  -0.05 0.4615384615384616 0  -0.025 0.4615384615384616 0  0 0.4615384615384616 0  0.02500000000000001 0.4615384615384616 0  0.05 0.4615384615384616 0  -0.05 0.5 0  -0.025 0.5 0  0 0.5 0  0.02500000000000001 0.5 0  0.05 0.5 0  -0.05 0.5384615384615384 0  -0.025 0.5384615384615384 0  0 0.5384615384615384 0  0.02500000000000001 0.5384615384615384 0  0.05 0.5384615384615384 0  -0.05 0.5769230769230769 0  -0.025 0.5769230769230769 0  0 0.5769230769230769 0  0.02500000000000001 0.5769230769230769 0  0.05 0.5769230769230769 0  -0.05 0.6153846153846154 0  -0.025 0.6153846153846154 0  0 0.6153846153846154 0  0.02500000000000001 0.6153846153846154 0  0.05 0.6153846153846154 0  -0.05 0.6538461538461539 0  -0.025 0.6538461538461539 0  0 0.6538461538461539 0  0.02500000000000001 0.6538461538461539 0  0.05 0.6538461538461539 0  -0.05 0.6923076923076923 0  -0.025 0.6923076923076923 0  0 0.6923076923076923 0  0.02500000000000001 0.6923076923076923 0  0.05 0.6923076923076923 0  -0.05 0.7307692307692307 0  -0.025 0.7307692307692307 0  0 0.7307692307692307 0  0.02500000000000001 0.7307692307692307 0  0.05 0.7307692307692307 0  -0.05 0.7692307692307693 0  -0.025 0.7692307692307693 0  0 0.7692307692307693 0  0.02500000000000001 0.7692307692307693 0  0.05 0.7692307692307693 0  -0.05 0.8076923076923077 0  -0.025 0.8076923076923077 0  0 0.8076923076923077 0  0.02500000000000001 0.8076923076923077 0  0.05 0.8076923076923077 0  -0.05 0.8461538461538461 0  -0.025 0.8461538461538461 0  0 0.8461538461538461 0  0.02500000000000001 0.8461538461538461 0  0.05 0.8461538461538461 0  -0.05 0.8846153846153846 0  -0.025 0.8846153846153846 0  0 0.8846153846153846 0  0.02500000000000001 0.8846153846153846 0  0.05 0.8846153846153846 0  -0.05 0.9230769230769231 0  -0.025 0.9230769230769231 0  0 0.9230769230769231 0  0.02500000000000001 0.9230769230769231 0  0.05 0.9230769230769231 0  -0.05 0.9615384615384616 0  -0.025 0.9615384615384616 0  0 0.9615384615384616 0  0.02500000000000001 0.9615384615384616 0  0.05 0.9615384615384616 0  -0.05 1 0  -0.025 1 0  0 1 0  0.02500000000000001 1 0  0.05 1 0  </DataArray>
</Points>
<Cells>
<DataArray  type="UInt32"  Name="connectivity"  format="ascii">0 1 6  0 5 6  1 2 7  1 6 7  2 3 8  2 7 8  3 4 9  3 8 9  5 6 11  5 10 11  6 7 12  6 11 12  7 8 13  7 12 13  8 9 14  8 13 14  10 11 16  10 15 16  11 12 17  11 16 17  12 13 18  12 17 18  13 14 19  13 18 19  15 16 21  15 20 21  16 17 22  16 21 22  17 18 23  17 22 23  18 19 24  18 23 24  20 21 26  20 25 26  21 22 27  21 26 27  22 23 28  22 27 28  23 24 29  23 28 29  25 26 31  25 30 31  26 27 32  26 31 32  27 28 33  27 32 33  28 29 34  28 33 34  30 31 36  30 35 36  31 32 37  31 36 37  32 33 38  32 37 38  33 34 39  33 38 39  35 36 41  35 40 41  36 37 42  36 41 42  37 38 43  37 42 43  38 39 44  38 43 44  40 41 46  40 45 46  41 42 47  41 46 47  42 43 48  42 47 48  43 44 49  43 48 49  45 46 51  45 50 51  46 47 52  46 51 52  47 48 53  47 52 53  48 49 54  48 53 54  50 51 56  50 55 56  51 52 57  51 56 57  52 53 58  52 57 58  53 54 59  53 58 59  55 56 61  55 60 61  56 57 62  56 61 62  57 58 63  57 62 63  58 59 64  58 63 64  60 61 66  60 65 66  61 62 67  61 66 67  62 63 68  62 67 68  63 64 69  63 68 69  65 66 71  65 70 71  66 67 72  66 71 72  67 68 73  67 72 73  68 69 74  68 73 74  70 71 76  70 75 76  71 72 77  71 76 77  72 73 78  72 77 78  73 74 79  73 78 79  75 76 81  75 80 81  76 77 82  76 81 82  77 78 83  77 82 83  78 79 84  78 83 84  80 81 86  80 85 86  81 82 87  81 86 87  82 83 88  82 87 88  83 84 89  83 88 89  85 86 91  85 90 91  86 87 92  86 91 92  87 88 93  87 92 93  88 89 94  88 93 94  90 91 96  90 95 96  91 92 97  91 96 97  92 93 98  92 97 98  93 94 99  93 98 99  95 96 101  95 100 101  96 97 102  96 101 102  97 98 103  97 102 103  98 99 104  98 103 104  100 101 106  100 105 106  101 102 107  101 106 107  102 103 108  102 107 108  103 104 109  103 108 109  105 106 111  105 110 111  106 107 112  106 111 112  107 108 113  107 112 113  108 109 114  108 113 114  110 111 116  110 115 116  111 112 117  111 116 117  112 113 118  112 117 118  113 114 119  113 118 119  115 116 121  115 120 121  116 117 122  116 121 122  117 118 123  117 122 123  118 119 124  118 123 124  120 121 126  120 125 126  121 122 127  121 126 127  122 123 128  122 127 128  123 124 129  123 128 129  125 126 131  125 130 131  126 127 132  126 131 132  127 128 133  127 132 133  128 129 134  128 133 134  </DataArray>
<DataArray  type="UInt32"  Name="offsets"  format="ascii">3 6 9 12 15 18 21 24 27 30 33 36 39 42 45 48 51 54 57 60 63 66 69 72 75 78 81 84 87 90 93 96 99 102 105 108 111 114 117 120 123 126 129 132 135 138 141 144 147 150 153 156 159 162 165 168 171 174 177 180 183 186 189 192 195 198 201 204 207 210 213 216 219 222 225 228 231 234 237 240 243 246 249 252 255 258 261 264 267 270 273 276 279 282 285 288 291 294 297 300 303 306 309 312 315 318 321 324 327 330 333 336 339 342 345 348 351 354 357 360 363 366 369 372 375 378 381 384 387 390 393 396 399 402 405 408 411 414 417 420 423 426 429 432 435 438 441 444 447 450 453 456 459 462 465 468 471 474 477 480 483 486 489 492 495 498 501 504 507 510 513 516 519 522 525 528 531 534 537 540 543 546 549 552 555 558 561 564 567 570 573 576 579 582 585 588 591 594 597 600 603 606 609 612 615 618 621 624 </DataArray>
<DataArray  type="UInt8"  Name="types"  format="ascii">5 5 5 5 5 5 5 5 5 5 5 5 5 5 5 5 5 5 5 5 5 5 5 5 5 5 5 5 5 5 5 5 5 5 5 5 5 5 5 5 5 5 5 5 5 5 5 5 5 5 5 5 5 5 5 5 5 5 5 5 5 5 5 5 5 5 5 5 5 5 5 5 5 5 5 5 5 5 5 5 5 5 5 5 5 5 5 5 5 5 5 5 5 5 5 5 5 5 5 5 5 5 5 5 5 5 5 5 5 5 5 5 5 5 5 5 5 5 5 5 5 5 5 5 5 5 5 5 5 5 5 5 5 5 5 5 5 5 5 5 5 5 5 5 5 5 5 5 5 5 5 5 5 5 5 5 5 5 5 5 5 5 5 5 5 5 5 5 5 5 5 5 5 5 5 5 5 5 5 5 5 5 5 5 5 5 5 5 5 5 5 5 5 5 5 5 5 5 5 5 5 5 5 5 5 5 5 5 </DataArray>
</Cells>
<PointData  Vectors="Displacement"> 
<DataArray  type="Float64"  Name="Displacement"  NumberOfComponents="3" format="ascii">-4.5740229004542870e-16 2.9460279968735306e-18 0.0000000000000000e+00  0.0000000000000000e+00 0.0000000000000000e+00 0.0000000000000000e+00  0.0000000000000000e+00 0.0000000000000000e+00 0.0000000000000000e+00  -5.4981586847108146e-17 7.8653694224201064e-19 0.0000000000000000e+00  1.6494476054132444e-16 -2.3596108267260321e-18 0.0000000000000000e+00  9.7461286299720145e-05 1.4984745331347418e-04 0.0000000000000000e+00  6.3288232737880462e-05 7.7351837566219382e-05 0.0000000000000000e+00  4.8863613039502316e-05 1.0066796769663927e-05 0.0000000000000000e+00  5.5683660193879954e-05 -5.6374976722093794e-05 0.0000000000000000e+00  8.3038112205924741e-05 -1.2918298953223649e-04 0.0000000000000000e+00  2.6017618992100577e-04 2.9531445581382345e-04 0.0000000000000000e+00  2.2820473980851396e-04 1.5711753846036505e-04 0.0000000000000000e+00  2.1588474400421195e-04 2.1158030566556329e-05 0.0000000000000000e+00  2.2280728419551827e-04 -1.1497083195322211e-04 0.0000000000000000e+00  2.4785680656527043e-04 -2.5433941949291259e-04 0.0000000000000000e+00  5.2863858707266880e-04 4.3821555893907443e-04 0.0000000000000000e+00  4.9774579524163184e-04 2.3300739387142999e-04 0.0000000000000000e+00  4.8621657284749533e-04 3.1356351573683214e-05 0.0000000000000000e+00  4.9269464511509460e-04 -1.6992397067878035e-04 0.0000000000000000e+00  5.1672651850700763e-04 -3.7462327024845142e-04 0.0000000000000000e+00  8.9580799868794342e-04 5.7410481734706793e-04 0.0000000000000000e+00  8.6564339233874171e-04 3.0671540767533446e-04 0.0000000000000000e+00  8.5317444783663740e-04 4.1981503674360408e-05 0.0000000000000000e+00  8.5982561960425000e-04 -2.2227323475901999e-04 0.0000000000000000e+00  8.8378827911110027e-04 -4.8952475915059034e-04 0.0000000000000000e+00  1.3548741180736488e-03 7.0522924708066347e-04 0.0000000000000000e+00  1.3262781140688301e-03 3.7769121994223395e-04 0.0000000000000000e+00  1.3151457683957762e-03 5.2074676833309230e-05 0.0000000000000000e+00  1.3212861293562873e-03 -2.7393228498480974e-04 0.0000000000000000e+00  1.3441785991606570e-03 -6.0076127767429567e-04 0.0000000000000000e+00  1.9081951561332904e-03 8.3174557007313242e-04 0.0000000000000000e+00  1.8787270022114428e-03 4.4610267695825554e-04 0.0000000000000000e+00  1.8666084944194059e-03 6.1508549105699544e-05 0.0000000000000000e+00  1.8720232897130873e-03 -3.2305525361175257e-04 0.0000000000000000e+00  1.8942690084398847e-03 -7.0839270524101551e-04 0.0000000000000000e+00  2.5425449671130028e-03 9.5609945133635172e-04 0.0000000000000000e+00  2.5149342204550179e-03 5.1362215229041285e-04 0.0000000000000000e+00  2.5037232855392201e-03 7.1188824642271986e-05 0.0000000000000000e+00  2.5090840345799561e-03 -3.7221697900213823e-04 0.0000000000000000e+00  2.5313610882378951e-03 -8.1613626084735681e-04 0.0000000000000000e+00  3.2722319374266563e-03 1.0832398054230342e-03 0.0000000000000000e+00  3.2436854577219732e-03 5.8019506654814746e-04 0.0000000000000000e+00  3.2330434647146987e-03 7.9919732524576294e-05 0.0000000000000000e+00  3.2392947828362643e-03 -4.2141214406509251e-04 0.0000000000000000e+00  3.2615255982971188e-03 -9.2541160751939764e-04 0.0000000000000000e+00  4.0965898557540868e-03 1.2085286963449554e-03 0.0000000000000000e+00  4.0700275787772106e-03 6.4553819500476513e-04 0.0000000000000000e+00  4.0597127620635868e-03 8.8086390107108126e-05 0.0000000000000000e+00  4.0652125724489662e-03 -4.6883953909842343e-04 0.0000000000000000e+00  4.0860504662546268e-03 -1.0315582235855434e-03 0.0000000000000000e+00  5.0152582358878291e-03 1.3226021978926875e-03 0.0000000000000000e+00  4.9921196451012681e-03 7.0479461573820306e-04 0.0000000000000000e+00  4.9828611236378386e-03 9.6716597576088060e-05 0.0000000000000000e+00  4.9871121659569844e-03 -5.1103465825993294e-04 0.0000000000000000e+00  5.0051574030161921e-03 -1.1281449100479729e-03 0.0000000000000000e+00  6.0131411781681439e-03 1.4150065587052215e-03 0.0000000000000000e+00  5.9942324087330330e-03 7.5429423272500721e-04 0.0000000000000000e+00  5.9865292989779361e-03 1.0443402142969627e-04 0.0000000000000000e+00  5.9899059602692749e-03 -5.4489205931643452e-04 0.0000000000000000e+00  6.0036778330279737e-03 -1.2054010208197639e-03 0.0000000000000000e+00  7.0674631391498899e-03 1.4830683235943537e-03 0.0000000000000000e+00  7.0547096991301827e-03 7.9127063795078828e-04 0.0000000000000000e+00  7.0486291666250825e-03 1.1130526920968106e-04 0.0000000000000000e+00  7.0499883728854665e-03 -5.6831247820928875e-04 0.0000000000000000e+00  7.0587600457524425e-03 -1.2591834630308412e-03 0.0000000000000000e+00  8.1609217366943494e-03 1.5253116848215546e-03 0.0000000000000000e+00  8.1513406850314829e-03 8.1737822928644899e-04 0.0000000000000000e+00  8.1462451972613321e-03 1.1873819591020154e-04 0.0000000000000000e+00  8.1465772677916833e-03 -5.8048227992002846e-04 0.0000000000000000e+00  8.1513668938363940e-03 -1.2895094966565708e-03 0.0000000000000000e+00  9.2638277854132766e-03 1.5485497518291146e-03 0.0000000000000000e+00  9.2585006643782931e-03 8.3383887082821547e-04 0.0000000000000000e+00  9.2553818898217059e-03 1.2518524461422646e-04 0.0000000000000000e+00  9.2556736954045316e-03 -5.8388258701265352e-04 0.0000000000000000e+00  9.2569538398446088e-03 -1.2988307984172019e-03 0.0000000000000000e+00  1.0370502353485370e-02 1.5595921923493860e-03 0.0000000000000000e+00  1.0366154847029138e-02 8.4433403678179871e-04 0.0000000000000000e+00  1.0363422173155983e-02 1.3116294471103947e-04 0.0000000000000000e+00  1.0362424830016360e-02 -5.8170117861838647e-04 0.0000000000000000e+00  1.0361908213075029e-02 -1.2959299026445072e-03 0.0000000000000000e+00  1.1467383003837249e-02 1.5657667401930381e-03 0.0000000000000000e+00  1.1463230888835951e-02 8.5225242214950953e-04 0.0000000000000000e+00  1.1460710879787792e-02 1.3708612072080078e-04 0.0000000000000000e+00  1.1460253641772451e-02 -5.7726507471906425e-04 0.0000000000000000e+00  1.1460190983127888e-02 -1.2906713142292554e-03 0.0000000000000000e+00  1.2560797881074790e-02 1.5762777962956438e-03 0.0000000000000000e+00  1.2556528390864749e-02 8.6073137048021399e-04 0.0000000000000000e+00  1.2554237898585925e-02 1.4245078738286946e-04 0.0000000000000000e+00  1.2554107085287720e-02 -5.7588075499024726e-04 0.0000000000000000e+00  1.2555256816285316e-02 -1.2904650077995787e-03 0.0000000000000000e+00  1.3663567536501386e-02 1.5937805870751523e-03 0.0000000000000000e+00  1.3656574745665074e-02 8.7175279855418377e-04 0.0000000000000000e+00  1.3653406502072496e-02 1.4712412158428113e-04 0.0000000000000000e+00  1.3653297319674270e-02 -5.7754421424675211e-04 0.0000000000000000e+00  1.3656126896250842e-02 -1.2989978610869254e-03 0.0000000000000000e+00  1.4777137241296595e-02 1.6188206353742773e-03 0.0000000000000000e+00  1.4770771652104381e-02 8.8544025423895447e-04 0.0000000000000000e+00  1.4767998234252146e-02 1.5154002180458185e-04 0.0000000000000000e+00  1.4768427164876276e-02 -5.8282192553550834e-04 0.0000000000000000e+00  1.4772297106729854e-02 -1.3165174904759781e-03 0.0000000000000000e+00  1.5918154917073584e-02 1.6465993548425181e-03 0.0000000000000000e+00  1.5910389070811947e-02 8.9990017274900577e-04 0.0000000000000000e+00  1.5907244473444729e-02 1.5559954797780915e-04 0.0000000000000000e+00  1.5908093964118037e-02 -5.8925504520958131e-04 0.0000000000000000e+00  1.5912517537087646e-02 -1.3357607660412969e-03 0.0000000000000000e+00  1.7074357981087369e-02 1.6696793101602526e-03 0.0000000000000000e+00  1.7068866512707712e-02 9.1361240246455014e-04 0.0000000000000000e+00  1.7066517337841602e-02 1.5949394628987044e-04 0.0000000000000000e+00  1.7067666262381723e-02 -5.9458150645462678e-04 0.0000000000000000e+00  1.7070830459194459e-02 -1.3501208554251869e-03 0.0000000000000000e+00  1.8245061680160157e-02 1.6875420453358670e-03 0.0000000000000000e+00  1.8240014570369854e-02 9.2434043678628428e-04 0.0000000000000000e+00  1.8237908016147990e-02 1.6331921890258140e-04 0.0000000000000000e+00  1.8238025515129472e-02 -5.9758506733258642e-04 0.0000000000000000e+00  1.8240084294054638e-02 -1.3592444916157129e-03 0.0000000000000000e+00  1.9422687929603128e-02 1.7016467693994736e-03 0.0000000000000000e+00  1.9417935586117607e-02 9.3338970023057639e-04 0.0000000000000000e+00  1.9415868989991317e-02 1.6668458155464418e-04 0.0000000000000000e+00  1.9416411937574103e-02 -5.9905037374634361e-04 0.0000000000000000e+00  1.9418507493915150e-02 -1.3655598147652344e-03 0.0000000000000000e+00  2.0606146362162236e-02 1.7134005601463942e-03 0.0000000000000000e+00  2.0602963430159646e-02 9.4049204739963307e-04 0.0000000000000000e+00  2.0601519076303237e-02 1.6985088592296694e-04 0.0000000000000000e+00  2.0601257043513756e-02 -6.0003869349990865e-04 0.0000000000000000e+00  2.0602363563270300e-02 -1.3704256342148291e-03 0.0000000000000000e+00  2.1800889246918635e-02 1.7230016485079355e-03 0.0000000000000000e+00  2.1795893361845703e-02 9.4667549103697910e-04 0.0000000000000000e+00  2.1793731663564055e-02 1.7300930063839190e-04 0.0000000000000000e+00  2.1793412459360995e-02 -6.0023531984055288e-04 0.0000000000000000e+00  2.1795910574929533e-02 -1.3742662338557144e-03 0.0000000000000000e+00  2.2991969857612503e-02 1.7274435024413331e-03 0.0000000000000000e+00  2.2990350102840132e-02 9.5142927138741401e-04 0.0000000000000000e+00  2.2989202876744178e-02 1.7595793497723184e-04 0.0000000000000000e+00  2.2989517812349026e-02 -5.9922841864421667e-04 0.0000000000000000e+00  2.2989461718565318e-02 -1.3755894429418086e-03 0.0000000000000000e+00  </DataArray> 
</PointData> 
</Piece>
</UnstructuredGrid>
</VTKFile>