<?xml version="1.0"?>
<VTKFile type="UnstructuredGrid"  version="0.1"  >
<UnstructuredGrid>
<Piece  NumberOfPoints="135" NumberOfCells="208">
<Points>
<DataArray  type="Float64"  NumberOfComponents="3"  format="ascii">-0.05 0 0  -0.025 0 0  0 0 0  0.02500000000000001 0 0  0.05 0 0  -0.05 0.03846153846153846 0  -0.025 0.03846153846153846 0  0 0.03846153846153846 0  0.02500000000000001 0.03846153846153846 0  0.05 0.03846153846153846 0  -0.05 0.07692307692307693 0  -0.025 0.07692307692307693 0  0 0.07692307692307693 0  0.02500000000000001 0.07692307692307693 0  0.05 0.07692307692307693 0  -0.05 0.1153846153846154 0  -0.025 0.1153846153846154 0  0 0.1153846153846154 0  0.02500000000000001 0.1153846153846154 0  0.05 0.1153846153846154 0  -0.05 0.1538461538461539 0  -0.025 0.1538461538461539 0  0 0.1538461538461539 0  0.02500000000000001 0.1538461538461539 0  0.05 0.1538461538461539 0  -0.05 0.1923076923076923 0  -0.025 0.1923076923076923 0  0 0.1923076923076923 0  0.02500000000000001 0.1923076923076923 0  0.05 0.1923076923076923 0  -0.05 0.2307692307692308 0  -0.025 0.2307692307692308 0  0 0.2307692307692308 0  0.02500000000000001 0.2307692307692308 0  0.05 0.2307692307692308 0  -0.05 0.2692307692307692 0  -0.025 0.2692307692307692 0  0 0.2692307692307692 0  0.02500000000000001 0.2692307692307692 0  0.05 0.2692307692307692 0  -0.05 0.3076923076923077 0  -0.025 0.3076923076923077 0  0 0.3076923076923077 0  0.02500000000000001 0.3076923076923077 0  0.05 0.3076923076923077 0  -0.05 0.3461538461538461 0  -0.025 0.3461538461538461 0  0 0.3461538461538461 0  0.02500000000000001 0.3461538461538461 0  0.05 0.3461538461538461 0  -0.05 0.3846153846153846 0  -0.025 0.3846153846153846 0  0 0.3846153846153846 0  0.02500000000000001 0.3846153846153846 0  0.05 0.3846153846153846 0  -0.05 0.4230769230769231 0  -0.025 0.4230769230769231 0  0 0.4230769230769231 0  0.02500000000000001 0.4230769230769231 0  0.05 0.4230769230769231 0  -0.05 0.4615384615384616 0  -0.025 0.4615384615384616 0  0 0.4615384615384616 0  0.02500000000000001 0.4615384615384616 0  0.05 0.4615384615384616 0  -0.05 0.5 0  -0.025 0.5 0  0 0.5 0  0.02500000000000001 0.5 0  0.05 0.5 0  -0.05 0.5384615384615384 0  -0.025 0.5384615384615384 0  0 0.5384615384615384 0  0.02500000000000001 0.5384615384615384 0  0.05 0.5384615384615384 0  -0.05 0.5769230769230769 0  -0.025 0.5769230769230769 0  0 0.5769230769230769 0  0.02500000000000001 0.5769230769230769 0  0.05 0.5769230769230769 0  -0.05 0.6153846153846154 0  -0.025 0.6153846153846154 0  0 0.6153846153846154 0  0.02500000000000001 0.6153846153846154 0  0.05 0.6153846153846154 0  -0.05 0.6538461538461539 0  -0.025 0.6538461538461539 0  0 0.6538461538461539 0  0.02500000000000001 0.6538461538461539 0  0.05 0.6538461538461539 0  -0.05 0.6923076923076923 0  -0.025 0.6923076923076923 0  0 0.6923076923076923 0  0.02500000000000001 0.6923076923076923 0  0.05 0.6923076923076923 0  -0.05 0.7307692307692307 0  -0.025 0.7307692307692307 0  0 0.7307692307692307 0  0.02500000000000001 0.7307692307692307 0  0.05 0.7307692307692307 0  -0.05 0.7692307692307693 0  -0.025 0.7692307692307693 0  0 0.7692307692307693 0  0.02500000000000001 0.7692307692307693 0  0.05 0.7692307692307693 0  -0.05 0.8076923076923077 0  -0.025 0.8076923076923077 0  0 0.8076923076923077 0  0.02500000000000001 0.8076923076923077 0  0.05 0.8076923076923077 0  -0.05 0.8461538461538461 0  -0.025 0.8461538461538461 0  0 0.8461538461538461 0  0.02500000000000001 0.8461538461538461 0  0.05 0.8461538461538461 0  -0.05 0.8846153846153846 0  -0.025 0.8846153846153846 0  0 0.8846153846153846 0  0.02500000000000001 0.8846153846153846 0  0.05 0.8846153846153846 0  -0.05 0.9230769230769231 0  -0.025 0.9230769230769231 0  0 0.9230769230769231 0  0.02500000000000001 0.9230769230769231 0  0.05 0.9230769230769231 0  -0.05 0.9615384615384616 0  -0.025 0.9615384615384616 0  0 0.9615384615384616 0  0.02500000000000001 0.9615384615384616 0  0.05 0.9615384615384616 0  -0.05 1 0  -0.025 1 0  0 1 0  0.02500000000000001 1 0  0.05 1 0  </DataArray>
</Points>
<Cells>
<DataArray  type="UInt32"  Name="connectivity"  format="ascii">0 1 6  0 5 6  1 2 7  1 6 7  2 3 8  2 7 8  3 4 9  3 8 9  5 6 11  5 10 11  6 7 12  6 11 12  7 8 13  7 12 13  8 9 14  8 13 14  10 11 16  10 15 16  11 12 17  11 16 17  12 13 18  12 17 18  13 14 19  13 18 19  15 16 21  15 20 21  16 17 22  16 21 22  17 18 23  17 22 23  18 19 24  18 23 24  20 21 26  20 25 26  21 22 27  21 26 27  22 23 28  22 27 28  23 24 29  23 28 29  25 26 31  25 30 31  26 27 32  26 31 32  27 28 33  27 32 33  28 29 34  28 33 34  30 31 36  30 35 36  31 32 37  31 36 37  32 33 38  32 37 38  33 34 39  33 38 39  35 36 41  35 40 41  36 37 42  36 41 42  37 38 43  37 42 43  38 39 44  38 43 44  40 41 46  40 45 46  41 42 47  41 46 47  42 43 48  42 47 48  43 44 49  43 48 49  45 46 51  45 50 51  46 47 52  46 51 52  47 48 53  47 52 53  48 49 54  48 53 54  50 51 56  50 55 56  51 52 57  51 56 57  52 53 58  52 57 58  53 54 59  53 58 59  55 56 61  55 60 61  56 57 62  56 61 62  57 58 63  57 62 63  58 59 64  58 63 64  60 61 66  60 65 66  61 62 67  61 66 67  62 63 68  62 67 68  63 64 69  63 68 69  65 66 71  65 70 71  66 67 72  66 71 72  67 68 73  67 72 73  68 69 74  68 73 74  70 71 76  70 75 76  71 72 77  71 76 77  72 73 78  72 77 78  73 74 79  73 78 79  75 76 81  75 80 81  76 77 82  76 81 82  77 78 83  77 82 83  78 79 84  78 83 84  80 81 86  80 85 86  81 82 87  81 86 87  82 83 88  82 87 88  83 84 89  83 88 89  85 86 91  85 90 91  86 87 92  86 91 92  87 88 93  87 92 93  88 89 94  88 93 94  90 91 96  90 95 96  91 92 97  91 96 97  92 93 98  92 97 98  93 94 99  93 98 99  95 96 101  95 100 101  96 97 102  96 101 102  97 98 103  97 102 103  98 99 104  98 103 104  100 101 106  100 105 106  101 102 107  101 106 107  102 103 108  102 107 108  103 104 109  103 108 109  105 106 111  105 110 111  106 107 112  106 111 112  107 108 113  107 112 113  108 109 114  108 113 114  110 111 116  110 115 116  111 112 117  111 116 117  112 113 118  112 117 118  113 114 119  113 118 119  115 116 121  115 120 121  116 117 122  116 121 122  117 118 123  117 122 123  118 119 124  118 123 124  120 121 126  120 125 126  121 122 127  121 126 127  122 123 128  122 127 128  123 124 129  123 128 129  125 126 131  125 130 131  126 127 132  126 131 132  127 128 133  127 132 133  128 129 134  128 133 134  </DataArray>
<DataArray  type="UInt32"  Name="offsets"  format="ascii">3 6 9 12 15 18 21 24 27 30 33 36 39 42 45 48 51 54 57 60 63 66 69 72 75 78 81 84 87 90 93 96 99 102 105 108 111 114 117 120 123 126 129 132 135 138 141 144 147 150 153 156 159 162 165 168 171 174 177 180 183 186 189 192 195 198 201 204 207 210 213 216 219 222 225 228 231 234 237 240 243 246 249 252 255 258 261 264 267 270 273 276 279 282 285 288 291 294 297 300 303 306 309 312 315 318 321 324 327 330 333 336 339 342 345 348 351 354 357 360 363 366 369 372 375 378 381 384 387 390 393 396 399 402 405 408 411 414 417 420 423 426 429 432 435 438 441 444 447 450 453 456 459 462 465 468 471 474 477 480 483 486 489 492 495 498 501 504 507 510 513 516 519 522 525 528 531 534 537 540 543 546 549 552 555 558 561 564 567 570 573 576 579 582 585 588 591 594 597 600 603 606 609 612 615 618 621 624 </DataArray>
<DataArray  type="UInt8"  Name="types"  format="ascii">5 5 5 5 5 5 5 5 5 5 5 5 5 5 5 5 5 5 5 5 5 5 5 5 5 5 5 5 5 5 5 5 5 5 5 5 5 5 5 5 5 5 5 5 5 5 5 5 5 5 5 5 5 5 5 5 5 5 5 5 5 5 5 5 5 5 5 5 5 5 5 5 5 5 5 5 5 5 5 5 5 5 5 5 5 5 5 5 5 5 5 5 5 5 5 5 5 5 5 5 5 5 5 5 5 5 5 5 5 5 5 5 5 5 5 5 5 5 5 5 5 5 5 5 5 5 5 5 5 5 5 5 5 5 5 5 5 5 5 5 5 5 5 5 5 5 5 5 5 5 5 5 5 5 5 5 5 5 5 5 5 5 5 5 5 5 5 5 5 5 5 5 5 5 5 5 5 5 5 5 5 5 5 5 5 5 5 5 5 5 5 5 5 5 5 5 5 5 5 5 5 5 5 5 5 5 5 5 </DataArray>
</Cells>
<PointData  Vectors="Displacement"> 
<DataArray  type="Float64"  Name="Displacement"  NumberOfComponents="3" format="ascii">-4.4760682015123812e-16 1.1154550338153298e-17 0.0000000000000000e+00  0.0000000000000000e+00 0.0000000000000000e+00 0.0000000000000000e+00  0.0000000000000000e+00 0.0000000000000000e+00 0.0000000000000000e+00  -6.0546359184678144e-17 1.7712171941563419e-18 0.0000000000000000e+00  1.8163907755403446e-16 -5.3136515824690261e-18 0.0000000000000000e+00  9.1520641163948639e-04 1.3404857584090140e-03 0.0000000000000000e+00  6.3910663230536840e-04 6.4008181359271460e-04 0.0000000000000000e+00  5.3474935393337355e-04 1.2423339777076620e-05 0.0000000000000000e+00  6.1877699927006093e-04 -6.0980762228355842e-04 0.0000000000000000e+00  8.9598369501150401e-04 -1.3266869671094215e-03 0.0000000000000000e+00  2.5215834335177386e-03 2.5815204167760407e-03 0.0000000000000000e+00  2.2684084167794252e-03 1.2763968016225450e-03 0.0000000000000000e+00  2.1816610375140523e-03 2.3282993166144399e-05 0.0000000000000000e+00  2.2645766096949069e-03 -1.2306293454230133e-03 0.0000000000000000e+00  2.5123875837708173e-03 -2.5392713646805514e-03 0.0000000000000000e+00  5.0359157089715023e-03 3.7326171053099749e-03 0.0000000000000000e+00  4.8041122784606644e-03 1.8589517248597839e-03 0.0000000000000000e+00  4.7247014118836231e-03 3.3131998262230601e-05 0.0000000000000000e+00  4.7995998458479558e-03 -1.7933956239584775e-03 0.0000000000000000e+00  5.0273407185210672e-03 -3.6677299775173884e-03 0.0000000000000000e+00  8.3849196061934021e-03 4.7909632232157121e-03 0.0000000000000000e+00  8.1718633303961320e-03 2.3943531636028965e-03 0.0000000000000000e+00  8.0995700303394900e-03 4.2904194865537810e-05 0.0000000000000000e+00  8.1684381165539176e-03 -2.3087929614103290e-03 0.0000000000000000e+00  8.3773322370458720e-03 -4.7063846013192497e-03 0.0000000000000000e+00  1.2501085101836694e-02 5.7629728098974294e-03 0.0000000000000000e+00  1.2306589259585375e-02 2.8857227739360475e-03 0.0000000000000000e+00  1.2240054570682732e-02 5.1681806453736068e-05 0.0000000000000000e+00  1.2303072209999764e-02 -2.7818687028214242e-03 0.0000000000000000e+00  1.2494581509684162e-02 -5.6583899639895121e-03 0.0000000000000000e+00  1.7325437067934088e-02 6.6510175049595910e-03 0.0000000000000000e+00  1.7146860510880078e-02 3.3351731692143854e-03 0.0000000000000000e+00  1.7085487424636212e-02 6.1446764806979704e-05 0.0000000000000000e+00  1.7142020126767025e-02 -3.2127741079108585e-03 0.0000000000000000e+00  1.7316210364842731e-02 -6.5291248333066839e-03 0.0000000000000000e+00  2.2787705302948540e-02 7.4582550070596094e-03 0.0000000000000000e+00  2.2626943423295711e-02 3.7445900518871117e-03 0.0000000000000000e+00  2.2571841871534017e-02 7.0588647195462880e-05 0.0000000000000000e+00  2.2623701350098890e-02 -3.6033429473736047e-03 0.0000000000000000e+00  2.2781286832198457e-02 -7.3178716471254497e-03 0.0000000000000000e+00  2.8833338494245152e-02 8.1885751617017423e-03 0.0000000000000000e+00  2.8687334258351002e-02 4.1147971155301140e-03 0.0000000000000000e+00  2.8637075871261582e-02 7.9660672270105855e-05 0.0000000000000000e+00  2.8683391905612480e-02 -3.9559288678534671e-03 0.0000000000000000e+00  2.8825530054285869e-02 -8.0297765672736887e-03 0.0000000000000000e+00  3.5400200055418170e-02 8.8440042158406135e-03 0.0000000000000000e+00  3.5269983921148072e-02 4.4481434087154945e-03 0.0000000000000000e+00  3.5225091130742826e-02 8.8706849010841625e-05 0.0000000000000000e+00  3.5266427718778311e-02 -4.2707006039003088e-03 0.0000000000000000e+00  3.5392868505474122e-02 -8.6672391903687331e-03 0.0000000000000000e+00  4.2432167086388653e-02 9.4284352745904031e-03 0.0000000000000000e+00  4.2316176473215193e-02 4.7460503480719332e-03 0.0000000000000000e+00  4.2275786146753348e-02 9.7595150902879591e-05 0.0000000000000000e+00  4.2312459882996374e-02 -4.5509352190976496e-03 0.0000000000000000e+00  4.2425001795464934e-02 -9.2332278393383628e-03 0.0000000000000000e+00  4.9877369245615977e-02 9.9465802217577875e-03 0.0000000000000000e+00  4.9774181472079619e-02 5.0106605143914879e-03 0.0000000000000000e+00  4.9738305368131390e-02 1.0685991962901355e-04 0.0000000000000000e+00  4.9770092867484947e-02 -4.7973091570881615e-03 0.0000000000000000e+00  4.9868819476460914e-02 -9.7338977585722051e-03 0.0000000000000000e+00  5.7684030992978579e-02 1.0402949135749587e-02 0.0000000000000000e+00  5.7594317960158861e-02 5.2445757790960581e-03 0.0000000000000000e+00  5.7562756681587862e-02 1.1567202102286765e-04 0.0000000000000000e+00  5.7590932509841604e-02 -5.0130604709014851e-03 0.0000000000000000e+00  5.7677306830745276e-02 -1.0171598632607533e-02 0.0000000000000000e+00  6.5809708451872603e-02 1.0801610033612628e-02 0.0000000000000000e+00  6.5730006656294956e-02 5.4496091268386596e-03 0.0000000000000000e+00  6.5701883994998975e-02 1.2495617764655427e-04 0.0000000000000000e+00  6.5725666815823855e-02 -5.2001947780852872e-03 0.0000000000000000e+00  6.5800630732688117e-02 -1.0552467716242325e-02 0.0000000000000000e+00  7.4208243230029725e-02 1.1148736985337530e-02 0.0000000000000000e+00  7.4140589926154618e-02 5.6284023501853480e-03 0.0000000000000000e+00  7.4116627841588137e-02 1.3387154648906513e-04 0.0000000000000000e+00  7.4137179128768799e-02 -5.3604784607628785e-03 0.0000000000000000e+00  7.4201147539908530e-02 -1.0881338828071508e-02 0.0000000000000000e+00  8.2847209609448691e-02 1.1444977079129410e-02 0.0000000000000000e+00  8.2788846520673004e-02 5.7817130715786891e-03 0.0000000000000000e+00  8.2767753476356953e-02 1.4274817880206630e-04 0.0000000000000000e+00  8.2784805264777023e-02 -5.4965890852553450e-03 0.0000000000000000e+00  8.2839105871021917e-02 -1.1159936232347881e-02 0.0000000000000000e+00  9.1683307562791375e-02 1.1693524818004057e-02 0.0000000000000000e+00  9.1634960488198511e-02 5.9111975798174848e-03 0.0000000000000000e+00  9.1617604237090935e-02 1.5126794891582706e-04 0.0000000000000000e+00  9.1631564691503131e-02 -5.6088765508212294e-03 0.0000000000000000e+00  9.1676053114574482e-02 -1.1392128405679703e-02 0.0000000000000000e+00  1.0068416481422100e-01 1.1898014338047266e-02 0.0000000000000000e+00  1.0064502845812681e-01 6.0181285849429935e-03 0.0000000000000000e+00  1.0063059421313815e-01 1.5897573587354247e-04 0.0000000000000000e+00  1.0064211948521914e-01 -5.7004084810740310e-03 0.0000000000000000e+00  1.0067831243135916e-01 -1.1580556014379337e-02 0.0000000000000000e+00  1.0981703467269981e-01 1.2060183407019313e-02 0.0000000000000000e+00  1.0978519001243620e-01 6.1042774387832874e-03 0.0000000000000000e+00  1.0977346890574846e-01 1.6652290770419707e-04 0.0000000000000000e+00  1.0978217457682421e-01 -5.7717415124832359e-03 0.0000000000000000e+00  1.0981022711442373e-01 -1.1728172150659360e-02 0.0000000000000000e+00  1.1904539117227227e-01 1.2186142329811165e-02 0.0000000000000000e+00  1.1902160289144810e-01 6.1724425224984345e-03 0.0000000000000000e+00  1.1901266481529488e-01 1.7309619369347621e-04 0.0000000000000000e+00  1.1901974920308109e-01 -5.8260438484256868e-03 0.0000000000000000e+00  1.1904108792510894e-01 -1.1839923953153916e-02 0.0000000000000000e+00  1.2835021838121349e-01 1.2282965918286325e-02 0.0000000000000000e+00  1.2833045431880818e-01 6.2251739405507767e-03 0.0000000000000000e+00  1.2832288278943263e-01 1.7930313609233026e-04 0.0000000000000000e+00  1.2832781523253842e-01 -5.8667920345580344e-03 0.0000000000000000e+00  1.2834435220918133e-01 -1.1923934262629195e-02 0.0000000000000000e+00  1.3770780252285583e-01 1.2357149802445616e-02 0.0000000000000000e+00  1.3769331907996959e-01 6.2664306012142935e-03 0.0000000000000000e+00  1.3768739272750100e-01 1.8499756204242690e-04 0.0000000000000000e+00  1.3769090626515665e-01 -5.8964719090795715e-03 0.0000000000000000e+00  1.3770293180543844e-01 -1.1987332865030764e-02 0.0000000000000000e+00  1.4710839116610730e-01 1.2413011838437743e-02 0.0000000000000000e+00  1.4709659186518426e-01 6.2983417933895440e-03 0.0000000000000000e+00  1.4709176803293125e-01 1.9047096003448828e-04 0.0000000000000000e+00  1.4709451640899474e-01 -5.9179813291081983e-03 0.0000000000000000e+00  1.4710367829596538e-01 -1.2032914614282641e-02 0.0000000000000000e+00  1.5653647811919269e-01 1.2455048362083550e-02 0.0000000000000000e+00  1.5652760659897597e-01 6.3220683073199014e-03 0.0000000000000000e+00  1.5652467695379083e-01 1.9469979275903919e-04 0.0000000000000000e+00  1.5652674105766490e-01 -5.9323320779671252e-03 0.0000000000000000e+00  1.5653315400650911e-01 -1.2064594250610508e-02 0.0000000000000000e+00  1.6598709066383377e-01 1.2485779996107855e-02 0.0000000000000000e+00  1.6598107767500631e-01 6.3395635119907609e-03 0.0000000000000000e+00  1.6597844143855017e-01 1.9855690914324207e-04 0.0000000000000000e+00  1.6597971656384944e-01 -5.9417747029419819e-03 0.0000000000000000e+00  1.6598429629895575e-01 -1.2086838970270835e-02 0.0000000000000000e+00  1.7545602264577764e-01 1.2505194995579463e-02 0.0000000000000000e+00  1.7545072838699352e-01 6.3514655994377145e-03 0.0000000000000000e+00  1.7544838922226916e-01 2.0236726406502132e-04 0.0000000000000000e+00  1.7544902516334604e-01 -5.9468052081020698e-03 0.0000000000000000e+00  1.7545283914163520e-01 -1.2099226447536939e-02 0.0000000000000000e+00  1.8492490891057015e-01 1.2512390709839663e-02 0.0000000000000000e+00  1.8492307223896040e-01 6.3578473711001912e-03 0.0000000000000000e+00  1.8492197491963511e-01 2.0531563384365651e-04 0.0000000000000000e+00  1.8492282428323537e-01 -5.9470449401045180e-03 0.0000000000000000e+00  1.8492385210080886e-01 -1.2102903625078116e-02 0.0000000000000000e+00  </DataArray> 
</PointData> 
</Piece>
</UnstructuredGrid>
</VTKFile>