<?xml version="1.0"?>
<VTKFile type="UnstructuredGrid"  version="0.1"  >
<UnstructuredGrid>
<Piece  NumberOfPoints="135" NumberOfCells="208">
<Points>
<DataArray  type="Float64"  NumberOfComponents="3"  format="ascii">-0.05 0 0  -0.025 0 0  0 0 0  0.02500000000000001 0 0  0.05 0 0  -0.05 0.03846153846153846 0  -0.025 0.03846153846153846 0  0 0.03846153846153846 0  0.02500000000000001 0.03846153846153846 0  0.05 0.03846153846153846 0  -0.05 0.07692307692307693 0  -0.025 0.07692307692307693 0  0 0.07692307692307693 0  0.02500000000000001 0.07692307692307693 0  0.05 0.07692307692307693 0  -0.05 0.1153846153846154 0  -0.025 0.1153846153846154 0  0 0.1153846153846154 0  0.02500000000000001 0.1153846153846154 0  0.05 0.1153846153846154 0  -0.05 0.1538461538461539 0  -0.025 0.1538461538461539 0  0 0.1538461538461539 0  0.02500000000000001 0.1538461538461539 0  0.05 0.1538461538461539 0  -0.05 0.1923076923076923 0  -0.025 0.1923076923076923 0  0 0.1923076923076923 0  0.02500000000000001 0.1923076923076923 0  0.05 0.1923076923076923 0  -0.05 0.2307692307692308 0  -0.025 0.2307692307692308 0  0 0.2307692307692308 0  0.02500000000000001 0.2307692307692308 0  0.05 0.2307692307692308 0  -0.05 0.2692307692307692 0  -0.025 0.2692307692307692 0  0 0.2692307692307692 0  0.02500000000000001 0.2692307692307692 0  0.05 0.2692307692307692 0  -0.05 0.3076923076923077 0  -0.025 0.3076923076923077 0  0 0.3076923076923077 0  0.02500000000000001 0.3076923076923077 0  0.05 0.3076923076923077 0  -0.05 0.3461538461538461 0  -0.025 0.3461538461538461 0  0 0.3461538461538461 0  0.02500000000000001 0.3461538461538461 0  0.05 0.3461538461538461 0  -0.05 0.3846153846153846 0  -0.025 0.3846153846153846 0  0 0.3846153846153846 0  0.02500000000000001 0.3846153846153846 0  0.05 0.3846153846153846 0  -0.05 0.4230769230769231 0  -0.025 0.4230769230769231 0  0 0.4230769230769231 0  0.02500000000000001 0.4230769230769231 0  0.05 0.4230769230769231 0  -0.05 0.4615384615384616 0  -0.025 0.4615384615384616 0  0 0.4615384615384616 0  0.02500000000000001 0.4615384615384616 0  0.05 0.4615384615384616 0  -0.05 0.5 0  -0.025 0.5 0  0 0.5 0  0.02500000000000001 0.5 0  0.05 0.5 0  -0.05 0.5384615384615384 0  -0.025 0.5384615384615384 0  0 0.5384615384615384 0  0.02500000000000001 0.5384615384615384 0  0.05 0.5384615384615384 0  -0.05 0.5769230769230769 0  -0.025 0.5769230769230769 0  0 0.5769230769230769 0  0.02500000000000001 0.5769230769230769 0  0.05 0.5769230769230769 0  -0.05 0.6153846153846154 0  -0.025 0.6153846153846154 0  0 0.6153846153846154 0  0.02500000000000001 0.6153846153846154 0  0.05 0.6153846153846154 0  -0.05 0.6538461538461539 0  -0.025 0.6538461538461539 0  0 0.6538461538461539 0  0.02500000000000001 0.6538461538461539 0  0.05 0.6538461538461539 0  -0.05 0.6923076923076923 0  -0.025 0.6923076923076923 0  0 0.6923076923076923 0  0.02500000000000001 0.6923076923076923 0  0.05 0.6923076923076923 0  -0.05 0.7307692307692307 0  -0.025 0.7307692307692307 0  0 0.7307692307692307 0  0.02500000000000001 0.7307692307692307 0  0.05 0.7307692307692307 0  -0.05 0.7692307692307693 0  -0.025 0.7692307692307693 0  0 0.7692307692307693 0  0.02500000000000001 0.7692307692307693 0  0.05 0.7692307692307693 0  -0.05 0.8076923076923077 0  -0.025 0.8076923076923077 0  0 0.8076923076923077 0  0.02500000000000001 0.8076923076923077 0  0.05 0.8076923076923077 0  -0.05 0.8461538461538461 0  -0.025 0.8461538461538461 0  0 0.8461538461538461 0  0.02500000000000001 0.8461538461538461 0  0.05 0.8461538461538461 0  -0.05 0.8846153846153846 0  -0.025 0.8846153846153846 0  0 0.8846153846153846 0  0.02500000000000001 0.8846153846153846 0  0.05 0.8846153846153846 0  -0.05 0.9230769230769231 0  -0.025 0.9230769230769231 0  0 0.9230769230769231 0  0.02500000000000001 0.9230769230769231 0  0.05 0.9230769230769231 0  -0.05 0.9615384615384616 0  -0.025 0.9615384615384616 0  0 0.9615384615384616 0  0.02500000000000001 0.9615384615384616 0  0.05 0.9615384615384616 0  -0.05 1 0  -0.025 1 0  0 1 0  0.02500000000000001 1 0  0.05 1 0  </DataArray>
</Points>
<Cells>
<DataArray  type="UInt32"  Name="connectivity"  format="ascii">0 1 6  0 5 6  1 2 7  1 6 7  2 3 8  2 7 8  3 4 9  3 8 9  5 6 11  5 10 11  6 7 12  6 11 12  7 8 13  7 12 13  8 9 14  8 13 14  10 11 16  10 15 16  11 12 17  11 16 17  12 13 18  12 17 18  13 14 19  13 18 19  15 16 21  15 20 21  16 17 22  16 21 22  17 18 23  17 22 23  18 19 24  18 23 24  20 21 26  20 25 26  21 22 27  21 26 27  22 23 28  22 27 28  23 24 29  23 28 29  25 26 31  25 30 31  26 27 32  26 31 32  27 28 33  27 32 33  28 29 34  28 33 34  30 31 36  30 35 36  31 32 37  31 36 37  32 33 38  32 37 38  33 34 39  33 38 39  35 36 41  35 40 41  36 37 42  36 41 42  37 38 43  37 42 43  38 39 44  38 43 44  40 41 46  40 45 46  41 42 47  41 46 47  42 43 48  42 47 48  43 44 49  43 48 49  45 46 51  45 50 51  46 47 52  46 51 52  47 48 53  47 52 53  48 49 54  48 53 54  50 51 56  50 55 56  51 52 57  51 56 57  52 53 58  52 57 58  53 54 59  53 58 59  55 56 61  55 60 61  56 57 62  56 61 62  57 58 63  57 62 63  58 59 64  58 63 64  60 61 66  60 65 66  61 62 67  61 66 67  62 63 68  62 67 68  63 64 69  63 68 69  65 66 71  65 70 71  66 67 72  66 71 72  67 68 73  67 72 73  68 69 74  68 73 74  70 71 76  70 75 76  71 72 77  71 76 77  72 73 78  72 77 78  73 74 79  73 78 79  75 76 81  75 80 81  76 77 82  76 81 82  77 78 83  77 82 83  78 79 84  78 83 84  80 81 86  80 85 86  81 82 87  81 86 87  82 83 88  82 87 88  83 84 89  83 88 89  85 86 91  85 90 91  86 87 92  86 91 92  87 88 93  87 92 93  88 89 94  88 93 94  90 91 96  90 95 96  91 92 97  91 96 97  92 93 98  92 97 98  93 94 99  93 98 99  95 96 101  95 100 101  96 97 102  96 101 102  97 98 103  97 102 103  98 99 104  98 103 104  100 101 106  100 105 106  101 102 107  101 106 107  102 103 108  102 107 108  103 104 109  103 108 109  105 106 111  105 110 111  106 107 112  106 111 112  107 108 113  107 112 113  108 109 114  108 113 114  110 111 116  110 115 116  111 112 117  111 116 117  112 113 118  112 117 118  113 114 119  113 118 119  115 116 121  115 120 121  116 117 122  116 121 122  117 118 123  117 122 123  118 119 124  118 123 124  120 121 126  120 125 126  121 122 127  121 126 127  122 123 128  122 127 128  123 124 129  123 128 129  125 126 131  125 130 131  126 127 132  126 131 132  127 128 133  127 132 133  128 129 134  128 133 134  </DataArray>
<DataArray  type="UInt32"  Name="offsets"  format="ascii">3 6 9 12 15 18 21 24 27 30 33 36 39 42 45 48 51 54 57 60 63 66 69 72 75 78 81 84 87 90 93 96 99 102 105 108 111 114 117 120 123 126 129 132 135 138 141 144 147 150 153 156 159 162 165 168 171 174 177 180 183 186 189 192 195 198 201 204 207 210 213 216 219 222 225 228 231 234 237 240 243 246 249 252 255 258 261 264 267 270 273 276 279 282 285 288 291 294 297 300 303 306 309 312 315 318 321 324 327 330 333 336 339 342 345 348 351 354 357 360 363 366 369 372 375 378 381 384 387 390 393 396 399 402 405 408 411 414 417 420 423 426 429 432 435 438 441 444 447 450 453 456 459 462 465 468 471 474 477 480 483 486 489 492 495 498 501 504 507 510 513 516 519 522 525 528 531 534 537 540 543 546 549 552 555 558 561 564 567 570 573 576 579 582 585 588 591 594 597 600 603 606 609 612 615 618 621 624 </DataArray>
<DataArray  type="UInt8"  Name="types"  format="ascii">5 5 5 5 5 5 5 5 5 5 5 5 5 5 5 5 5 5 5 5 5 5 5 5 5 5 5 5 5 5 5 5 5 5 5 5 5 5 5 5 5 5 5 5 5 5 5 5 5 5 5 5 5 5 5 5 5 5 5 5 5 5 5 5 5 5 5 5 5 5 5 5 5 5 5 5 5 5 5 5 5 5 5 5 5 5 5 5 5 5 5 5 5 5 5 5 5 5 5 5 5 5 5 5 5 5 5 5 5 5 5 5 5 5 5 5 5 5 5 5 5 5 5 5 5 5 5 5 5 5 5 5 5 5 5 5 5 5 5 5 5 5 5 5 5 5 5 5 5 5 5 5 5 5 5 5 5 5 5 5 5 5 5 5 5 5 5 5 5 5 5 5 5 5 5 5 5 5 5 5 5 5 5 5 5 5 5 5 5 5 5 5 5 5 5 5 5 5 5 5 5 5 5 5 5 5 5 5 </DataArray>
</Cells>
<PointData  Vectors="Displacement"> 
<DataArray  type="Float64"  Name="Displacement"  NumberOfComponents="3" format="ascii">-4.4024669881495122e-16 4.6987609484692936e-18 0.0000000000000000e+00  0.0000000000000000e+00 0.0000000000000000e+00 0.0000000000000000e+00  0.0000000000000000e+00 0.0000000000000000e+00 0.0000000000000000e+00  -5.5166030320098682e-17 8.2987269574744597e-19 0.0000000000000000e+00  1.6549809096029606e-16 -2.4896180872423380e-18 0.0000000000000000e+00  2.5588405915780648e-04 4.1035406368617068e-04 0.0000000000000000e+00  1.6479407499175804e-04 2.0439518435180345e-04 0.0000000000000000e+00  1.2867644871772274e-04 8.8934706055377232e-06 0.0000000000000000e+00  1.5312104227838076e-04 -1.8543780961096266e-04 0.0000000000000000e+00  2.3943228970722594e-04 -3.9502155963572471e-04 0.0000000000000000e+00  7.2268431412839248e-04 8.1940083649762450e-04 0.0000000000000000e+00  6.3461810910953010e-04 4.1808991278014304e-04 0.0000000000000000e+00  6.0319019056146383e-04 1.9012043231380522e-05 0.0000000000000000e+00  6.2917221020870352e-04 -3.8164234933353461e-04 0.0000000000000000e+00  7.1123072348594127e-04 -7.8588886855477107e-04 0.0000000000000000e+00  1.4980219436425237e-03 1.2282287403751972e-03 0.0000000000000000e+00  1.4108902820603015e-03 6.2679019641098449e-04 0.0000000000000000e+00  1.3807410514487422e-03 2.7265961887658761e-05 0.0000000000000000e+00  1.4065722802171640e-03 -5.7306709466575356e-04 0.0000000000000000e+00  1.4881124971189662e-03 -1.1745880558354728e-03 0.0000000000000000e+00  2.5788256580456339e-03 1.6354873352272044e-03 0.0000000000000000e+00  2.4913689684340538e-03 8.3496656046004451e-04 0.0000000000000000e+00  2.4606694134897242e-03 3.6069373272500484e-05 0.0000000000000000e+00  2.4861703076102105e-03 -7.6232946052762424e-04 0.0000000000000000e+00  2.5672866638492653e-03 -1.5618732207094443e-03 0.0000000000000000e+00  3.9650921397013537e-03 2.0431465915609248e-03 0.0000000000000000e+00  3.8791061611003885e-03 1.0430134204141284e-03 0.0000000000000000e+00  3.8484780399924670e-03 4.6190236280520136e-05 0.0000000000000000e+00  3.8734072622669991e-03 -9.5105130942551663e-04 0.0000000000000000e+00  3.9541953987811632e-03 -1.9515285075132108e-03 0.0000000000000000e+00  5.6632041772371839e-03 2.4466979182836343e-03 0.0000000000000000e+00  5.5773477614789891e-03 1.2485967557059286e-03 0.0000000000000000e+00  5.5475890801125697e-03 5.5279016221624789e-05 0.0000000000000000e+00  5.5723912331406365e-03 -1.1381388802814505e-03 0.0000000000000000e+00  5.6521762622726004e-03 -2.3363045706093258e-03 0.0000000000000000e+00  7.6615449681631366e-03 2.8411301058239081e-03 0.0000000000000000e+00  7.5794167983247165e-03 1.4492469920649675e-03 0.0000000000000000e+00  7.5500062352330593e-03 6.5184509419112950e-05 0.0000000000000000e+00  7.5733416578872307e-03 -1.3201950498863539e-03 0.0000000000000000e+00  7.6500978273366842e-03 -2.7116015534881504e-03 0.0000000000000000e+00  9.9586870448271064e-03 3.2224726916289578e-03 0.0000000000000000e+00  9.8780706306093886e-03 1.6450677549171254e-03 0.0000000000000000e+00  9.8492942939171699e-03 7.5911225040033211e-05 0.0000000000000000e+00  9.8713601672479577e-03 -1.4943875311911278e-03 0.0000000000000000e+00  9.9451849366861828e-03 -3.0735252144605189e-03 0.0000000000000000e+00  1.2536943936397964e-02 3.5892965479178973e-03 0.0000000000000000e+00  1.2461790424829946e-02 1.8318232552763233e-03 0.0000000000000000e+00  1.2435900579539617e-02 8.6565549126362270e-05 0.0000000000000000e+00  1.2457369644338231e-02 -1.6598248462676331e-03 0.0000000000000000e+00  1.2526941396873300e-02 -3.4183649144701889e-03 0.0000000000000000e+00  1.5391369571955839e-02 3.9344357674105891e-03 0.0000000000000000e+00  1.5320960468559422e-02 2.0073140069547415e-03 0.0000000000000000e+00  1.5296006320291784e-02 9.6758952546732176e-05 0.0000000000000000e+00  1.5315556644729450e-02 -1.8137156897277344e-03 0.0000000000000000e+00  1.5379950989834771e-02 -3.7395079252164373e-03 0.0000000000000000e+00  1.8495502209101136e-02 4.2474039434112201e-03 0.0000000000000000e+00  1.8431677498639370e-02 2.1693675071757859e-03 0.0000000000000000e+00  1.8408351549351276e-02 1.0820703688923207e-04 0.0000000000000000e+00  1.8425312417528598e-02 -1.9526540824128568e-03 0.0000000000000000e+00  1.8482752805974813e-02 -4.0303563205756777e-03 0.0000000000000000e+00  2.1817525452955837e-02 4.5249397803010473e-03 0.0000000000000000e+00  2.1762138525278692e-02 2.3131627983648522e-03 0.0000000000000000e+00  2.1741857083752553e-02 1.1920345077843618e-04 0.0000000000000000e+00  2.1756557897002947e-02 -2.0748206282134073e-03 0.0000000000000000e+00  2.1806490424063324e-02 -4.2863802861400025e-03 0.0000000000000000e+00  2.5334816859051802e-02 4.7668475671041851e-03 0.0000000000000000e+00  2.5285536281144515e-02 2.4394632906154360e-03 0.0000000000000000e+00  2.5267519541777521e-02 1.2938501125895038e-04 0.0000000000000000e+00  2.5280084791927820e-02 -2.1802666596637053e-03 0.0000000000000000e+00  2.5323677694150129e-02 -4.5072145920613928e-03 0.0000000000000000e+00  2.9012325879738579e-02 4.9736218188130036e-03 0.0000000000000000e+00  2.8971464406412028e-02 2.5481836694909296e-03 0.0000000000000000e+00  2.8955944951075483e-02 1.4027430597474263e-04 0.0000000000000000e+00  2.8966035993805029e-02 -2.2685957500369015e-03 0.0000000000000000e+00  2.9001777675495468e-02 -4.6945613886723381e-03 0.0000000000000000e+00  3.2829361938006348e-02 5.1475594423275447e-03 0.0000000000000000e+00  3.2793775772541826e-02 2.6412392478581590e-03 0.0000000000000000e+00  3.2780595850872708e-02 1.4996277072168421e-04 0.0000000000000000e+00  3.2789860548626044e-02 -2.3415339634620847e-03 0.0000000000000000e+00  3.2820589621598360e-02 -4.8483371294151386e-03 0.0000000000000000e+00  3.6755966505722944e-02 5.2919128663269366e-03 0.0000000000000000e+00  3.6727043737531460e-02 2.7184409295945896e-03 0.0000000000000000e+00  3.6716385451083897e-02 1.5882787237197108e-04 0.0000000000000000e+00  3.6723422868015020e-02 -2.4004750426364369e-03 0.0000000000000000e+00  3.6747235276780643e-02 -4.9726825549029473e-03 0.0000000000000000e+00  4.0770153308507515e-02 5.4078749845108080e-03 0.0000000000000000e+00  4.0746159975463520e-02 2.7825627232809869e-03 0.0000000000000000e+00  4.0736171954993523e-02 1.6769248105064964e-04 0.0000000000000000e+00  4.0741103051981489e-02 -2.4470025413912177e-03 0.0000000000000000e+00  4.0760819403622604e-02 -5.0713024411332287e-03 0.0000000000000000e+00  4.4852801351438182e-02 5.5035983511700056e-03 0.0000000000000000e+00  4.4831477185025462e-02 2.8363700924412122e-03 0.0000000000000000e+00  4.4822971012720217e-02 1.7608603407639751e-04 0.0000000000000000e+00  4.4827262353483187e-02 -2.4846569788102243e-03 0.0000000000000000e+00  4.4843826643431915e-02 -5.1522193260187706e-03 0.0000000000000000e+00  4.8991342050777424e-02 5.5874947928862273e-03 0.0000000000000000e+00  4.8973413495847329e-02 2.8824743541656234e-03 0.0000000000000000e+00  4.8966124686762938e-02 1.8334199830830064e-04 0.0000000000000000e+00  4.8969737841936631e-02 -2.5162441591412787e-03 0.0000000000000000e+00  4.8983463704765327e-02 -5.2209520785809101e-03 0.0000000000000000e+00  5.3185893136122604e-02 5.6619032416714279e-03 0.0000000000000000e+00  5.3168192093129014e-02 2.9239661745987322e-03 0.0000000000000000e+00  5.3160893923639110e-02 1.9004675994097696e-04 0.0000000000000000e+00  5.3163798210094156e-02 -2.5438132262108138e-03 0.0000000000000000e+00  5.3176891789750200e-02 -5.2808153453805457e-03 0.0000000000000000e+00  5.7422345023488107e-02 5.7292398377021703e-03 0.0000000000000000e+00  5.7407358124732868e-02 2.9609489239258375e-03 0.0000000000000000e+00  5.7401695007568351e-02 1.9611107767035423e-04 0.0000000000000000e+00  5.7404394761464139e-02 -2.5686251513975748e-03 0.0000000000000000e+00  5.7415431904470841e-02 -5.3363544044894694e-03 0.0000000000000000e+00  6.1706781247759600e-02 5.7923894523351825e-03 0.0000000000000000e+00  6.1692589084170704e-02 2.9946790913992871e-03 0.0000000000000000e+00  6.1687506288752601e-02 2.0139914591436067e-04 0.0000000000000000e+00  6.1690064555078764e-02 -2.5910151591591159e-03 0.0000000000000000e+00  6.1701028299279620e-02 -5.3875570534455850e-03 0.0000000000000000e+00  6.6036551633439008e-02 5.8485268125086694e-03 0.0000000000000000e+00  6.6024586793204360e-02 3.0234911106688995e-03 0.0000000000000000e+00  6.6020247741790800e-02 2.0589617711468954e-04 0.0000000000000000e+00  6.6021912818237077e-02 -2.6106474694133673e-03 0.0000000000000000e+00  6.6030723576873729e-02 -5.4331341747326954e-03 0.0000000000000000e+00  7.0404771857640977e-02 5.8908135792355909e-03 0.0000000000000000e+00  7.0396352544334503e-02 3.0460640981299541e-03 0.0000000000000000e+00  7.0392869263995725e-02 2.1027506352538575e-04 0.0000000000000000e+00  7.0393563916123822e-02 -2.6250315895349693e-03 0.0000000000000000e+00  7.0399565510259110e-02 -5.4683617599830432e-03 0.0000000000000000e+00  7.4799448458271259e-02 5.9162978691476237e-03 0.0000000000000000e+00  7.4792873116934208e-02 3.0608489038628384e-03 0.0000000000000000e+00  7.4790284248378289e-02 2.1320631578281875e-04 0.0000000000000000e+00  7.4790971461731276e-02 -2.6334448416288981e-03 0.0000000000000000e+00  7.4795397682412931e-02 -5.4857421148163301e-03 0.0000000000000000e+00  7.9193628212655034e-02 5.9236476673178943e-03 0.0000000000000000e+00  7.9191075130782621e-02 3.0679095221292346e-03 0.0000000000000000e+00  7.9188744212192380e-02 2.1605451904492027e-04 0.0000000000000000e+00  7.9188695210786822e-02 -2.6350174288241913e-03 0.0000000000000000e+00  7.9189480286025751e-02 -5.4891974501704880e-03 0.0000000000000000e+00  </DataArray> 
</PointData> 
</Piece>
</UnstructuredGrid>
</VTKFile>