<?xml version="1.0"?>
<VTKFile type="UnstructuredGrid"  version="0.1"  >
<UnstructuredGrid>
<Piece  NumberOfPoints="135" NumberOfCells="208">
<Points>
<DataArray  type="Float64"  NumberOfComponents="3"  format="ascii">-0.05 0 0  -0.025 0 0  0 0 0  0.02500000000000001 0 0  0.05 0 0  -0.05 0.03846153846153846 0  -0.025 0.03846153846153846 0  0 0.03846153846153846 0  0.02500000000000001 0.03846153846153846 0  0.05 0.03846153846153846 0  -0.05 0.07692307692307693 0  -0.025 0.07692307692307693 0  0 0.07692307692307693 0  0.02500000000000001 0.07692307692307693 0  0.05 0.07692307692307693 0  -0.05 0.1153846153846154 0  -0.025 0.1153846153846154 0  0 0.1153846153846154 0  0.02500000000000001 0.1153846153846154 0  0.05 0.1153846153846154 0  -0.05 0.1538461538461539 0  -0.025 0.1538461538461539 0  0 0.1538461538461539 0  0.02500000000000001 0.1538461538461539 0  0.05 0.1538461538461539 0  -0.05 0.1923076923076923 0  -0.025 0.1923076923076923 0  0 0.1923076923076923 0  0.02500000000000001 0.1923076923076923 0  0.05 0.1923076923076923 0  -0.05 0.2307692307692308 0  -0.025 0.2307692307692308 0  0 0.2307692307692308 0  0.02500000000000001 0.2307692307692308 0  0.05 0.2307692307692308 0  -0.05 0.2692307692307692 0  -0.025 0.2692307692307692 0  0 0.2692307692307692 0  0.02500000000000001 0.2692307692307692 0  0.05 0.2692307692307692 0  -0.05 0.3076923076923077 0  -0.025 0.3076923076923077 0  0 0.3076923076923077 0  0.02500000000000001 0.3076923076923077 0  0.05 0.3076923076923077 0  -0.05 0.3461538461538461 0  -0.025 0.3461538461538461 0  0 0.3461538461538461 0  0.02500000000000001 0.3461538461538461 0  0.05 0.3461538461538461 0  -0.05 0.3846153846153846 0  -0.025 0.3846153846153846 0  0 0.3846153846153846 0  0.02500000000000001 0.3846153846153846 0  0.05 0.3846153846153846 0  -0.05 0.4230769230769231 0  -0.025 0.4230769230769231 0  0 0.4230769230769231 0  0.02500000000000001 0.4230769230769231 0  0.05 0.4230769230769231 0  -0.05 0.4615384615384616 0  -0.025 0.4615384615384616 0  0 0.4615384615384616 0  0.02500000000000001 0.4615384615384616 0  0.05 0.4615384615384616 0  -0.05 0.5 0  -0.025 0.5 0  0 0.5 0  0.02500000000000001 0.5 0  0.05 0.5 0  -0.05 0.5384615384615384 0  -0.025 0.5384615384615384 0  0 0.5384615384615384 0  0.02500000000000001 0.5384615384615384 0  0.05 0.5384615384615384 0  -0.05 0.5769230769230769 0  -0.025 0.5769230769230769 0  0 0.5769230769230769 0  0.02500000000000001 0.5769230769230769 0  0.05 0.5769230769230769 0  -0.05 0.6153846153846154 0  -0.025 0.6153846153846154 0  0 0.6153846153846154 0  0.02500000000000001 0.6153846153846154 0  0.05 0.6153846153846154 0  -0.05 0.6538461538461539 0  -0.025 0.6538461538461539 0  0 0.6538461538461539 0  0.02500000000000001 0.6538461538461539 0  0.05 0.6538461538461539 0  -0.05 0.6923076923076923 0  -0.025 0.6923076923076923 0  0 0.6923076923076923 0  0.02500000000000001 0.6923076923076923 0  0.05 0.6923076923076923 0  -0.05 0.7307692307692307 0  -0.025 0.7307692307692307 0  0 0.7307692307692307 0  0.02500000000000001 0.7307692307692307 0  0.05 0.7307692307692307 0  -0.05 0.7692307692307693 0  -0.025 0.7692307692307693 0  0 0.7692307692307693 0  0.02500000000000001 0.7692307692307693 0  0.05 0.7692307692307693 0  -0.05 0.8076923076923077 0  -0.025 0.8076923076923077 0  0 0.8076923076923077 0  0.02500000000000001 0.8076923076923077 0  0.05 0.8076923076923077 0  -0.05 0.8461538461538461 0  -0.025 0.8461538461538461 0  0 0.8461538461538461 0  0.02500000000000001 0.8461538461538461 0  0.05 0.8461538461538461 0  -0.05 0.8846153846153846 0  -0.025 0.8846153846153846 0  0 0.8846153846153846 0  0.02500000000000001 0.8846153846153846 0  0.05 0.8846153846153846 0  -0.05 0.9230769230769231 0  -0.025 0.9230769230769231 0  0 0.9230769230769231 0  0.02500000000000001 0.9230769230769231 0  0.05 0.9230769230769231 0  -0.05 0.9615384615384616 0  -0.025 0.9615384615384616 0  0 0.9615384615384616 0  0.02500000000000001 0.9615384615384616 0  0.05 0.9615384615384616 0  -0.05 1 0  -0.025 1 0  0 1 0  0.02500000000000001 1 0  0.05 1 0  </DataArray>
</Points>
<Cells>
<DataArray  type="UInt32"  Name="connectivity"  format="ascii">0 1 6  0 5 6  1 2 7  1 6 7  2 3 8  2 7 8  3 4 9  3 8 9  5 6 11  5 10 11  6 7 12  6 11 12  7 8 13  7 12 13  8 9 14  8 13 14  10 11 16  10 15 16  11 12 17  11 16 17  12 13 18  12 17 18  13 14 19  13 18 19  15 16 21  15 20 21  16 17 22  16 21 22  17 18 23  17 22 23  18 19 24  18 23 24  20 21 26  20 25 26  21 22 27  21 26 27  22 23 28  22 27 28  23 24 29  23 28 29  25 26 31  25 30 31  26 27 32  26 31 32  27 28 33  27 32 33  28 29 34  28 33 34  30 31 36  30 35 36  31 32 37  31 36 37  32 33 38  32 37 38  33 34 39  33 38 39  35 36 41  35 40 41  36 37 42  36 41 42  37 38 43  37 42 43  38 39 44  38 43 44  40 41 46  40 45 46  41 42 47  41 46 47  42 43 48  42 47 48  43 44 49  43 48 49  45 46 51  45 50 51  46 47 52  46 51 52  47 48 53  47 52 53  48 49 54  48 53 54  50 51 56  50 55 56  51 52 57  51 56 57  52 53 58  52 57 58  53 54 59  53 58 59  55 56 61  55 60 61  56 57 62  56 61 62  57 58 63  57 62 63  58 59 64  58 63 64  60 61 66  60 65 66  61 62 67  61 66 67  62 63 68  62 67 68  63 64 69  63 68 69  65 66 71  65 70 71  66 67 72  66 71 72  67 68 73  67 72 73  68 69 74  68 73 74  70 71 76  70 75 76  71 72 77  71 76 77  72 73 78  72 77 78  73 74 79  73 78 79  75 76 81  75 80 81  76 77 82  76 81 82  77 78 83  77 82 83  78 79 84  78 83 84  80 81 86  80 85 86  81 82 87  81 86 87  82 83 88  82 87 88  83 84 89  83 88 89  85 86 91  85 90 91  86 87 92  86 91 92  87 88 93  87 92 93  88 89 94  88 93 94  90 91 96  90 95 96  91 92 97  91 96 97  92 93 98  92 97 98  93 94 99  93 98 99  95 96 101  95 100 101  96 97 102  96 101 102  97 98 103  97 102 103  98 99 104  98 103 104  100 101 106  100 105 106  101 102 107  101 106 107  102 103 108  102 107 108  103 104 109  103 108 109  105 106 111  105 110 111  106 107 112  106 111 112  107 108 113  107 112 113  108 109 114  108 113 114  110 111 116  110 115 116  111 112 117  111 116 117  112 113 118  112 117 118  113 114 119  113 118 119  115 116 121  115 120 121  116 117 122  116 121 122  117 118 123  117 122 123  118 119 124  118 123 124  120 121 126  120 125 126  121 122 127  121 126 127  122 123 128  122 127 128  123 124 129  123 128 129  125 126 131  125 130 131  126 127 132  126 131 132  127 128 133  127 132 133  128 129 134  128 133 134  </DataArray>
<DataArray  type="UInt32"  Name="offsets"  format="ascii">3 6 9 12 15 18 21 24 27 30 33 36 39 42 45 48 51 54 57 60 63 66 69 72 75 78 81 84 87 90 93 96 99 102 105 108 111 114 117 120 123 126 129 132 135 138 141 144 147 150 153 156 159 162 165 168 171 174 177 180 183 186 189 192 195 198 201 204 207 210 213 216 219 222 225 228 231 234 237 240 243 246 249 252 255 258 261 264 267 270 273 276 279 282 285 288 291 294 297 300 303 306 309 312 315 318 321 324 327 330 333 336 339 342 345 348 351 354 357 360 363 366 369 372 375 378 381 384 387 390 393 396 399 402 405 408 411 414 417 420 423 426 429 432 435 438 441 444 447 450 453 456 459 462 465 468 471 474 477 480 483 486 489 492 495 498 501 504 507 510 513 516 519 522 525 528 531 534 537 540 543 546 549 552 555 558 561 564 567 570 573 576 579 582 585 588 591 594 597 600 603 606 609 612 615 618 621 624 </DataArray>
<DataArray  type="UInt8"  Name="types"  format="ascii">5 5 5 5 5 5 5 5 5 5 5 5 5 5 5 5 5 5 5 5 5 5 5 5 5 5 5 5 5 5 5 5 5 5 5 5 5 5 5 5 5 5 5 5 5 5 5 5 5 5 5 5 5 5 5 5 5 5 5 5 5 5 5 5 5 5 5 5 5 5 5 5 5 5 5 5 5 5 5 5 5 5 5 5 5 5 5 5 5 5 5 5 5 5 5 5 5 5 5 5 5 5 5 5 5 5 5 5 5 5 5 5 5 5 5 5 5 5 5 5 5 5 5 5 5 5 5 5 5 5 5 5 5 5 5 5 5 5 5 5 5 5 5 5 5 5 5 5 5 5 5 5 5 5 5 5 5 5 5 5 5 5 5 5 5 5 5 5 5 5 5 5 5 5 5 5 5 5 5 5 5 5 5 5 5 5 5 5 5 5 5 5 5 5 5 5 5 5 5 5 5 5 5 5 5 5 5 5 </DataArray>
</Cells>
<PointData  Vectors="Displacement"> 
<DataArray  type="Float64"  Name="Displacement"  NumberOfComponents="3" format="ascii">-4.7292388314638226e-16 2.7859839587132987e-18 0.0000000000000000e+00  0.0000000000000000e+00 0.0000000000000000e+00 0.0000000000000000e+00  0.0000000000000000e+00 0.0000000000000000e+00 0.0000000000000000e+00  -5.6840133659250764e-17 9.7064886871098119e-19 0.0000000000000000e+00  1.7052040097775230e-16 -2.9119466061329440e-18 0.0000000000000000e+00  9.9337326866500786e-05 1.6778256060950240e-04 0.0000000000000000e+00  6.0176127312621533e-05 8.0806512219040049e-05 0.0000000000000000e+00  4.6655022933022675e-05 -2.7989764061329452e-06 0.0000000000000000e+00  5.9840323307651284e-05 -8.5880151416279442e-05 0.0000000000000000e+00  9.9266800264421158e-05 -1.7427328248039497e-04 0.0000000000000000e+00  2.9527625629627058e-04 3.4057114693447448e-04 0.0000000000000000e+00  2.5824158858613527e-04 1.6687672821394690e-04 0.0000000000000000e+00  2.4635907286688015e-04 -6.1157008330986536e-06 0.0000000000000000e+00  2.5973574163190853e-04 -1.7894619561931318e-04 0.0000000000000000e+00  2.9787877399013328e-04 -3.5257137626523499e-04 0.0000000000000000e+00  6.3336530428969228e-04 5.1395784186678277e-04 0.0000000000000000e+00  5.9616218187304355e-04 2.5095869567323188e-04 0.0000000000000000e+00  5.8419683540168776e-04 -9.9709995085430746e-06 0.0000000000000000e+00  5.9715621166217482e-04 -2.7055924386243580e-04 0.0000000000000000e+00  6.3498645832211380e-04 -5.3326523946949111e-04 0.0000000000000000e+00  1.1067677576796643e-03 6.8262427693727688e-04 0.0000000000000000e+00  1.0708414878133382e-03 3.3266337694601062e-04 0.0000000000000000e+00  1.0597508877157311e-03 -1.4609976193445922e-05 0.0000000000000000e+00  1.0729057805761932e-03 -3.6122769416996163e-04 0.0000000000000000e+00  1.1102674383689215e-03 -7.0993648658643650e-04 0.0000000000000000e+00  1.7106319302366058e-03 8.4546070741768479e-04 0.0000000000000000e+00  1.6761178300895387e-03 4.1231968856918970e-04 0.0000000000000000e+00  1.6645069071337354e-03 -1.9115747357430095e-05 0.0000000000000000e+00  1.6766928631247514e-03 -4.4986992289387237e-04 0.0000000000000000e+00  1.7125666900021023e-03 -8.8198094217708178e-04 0.0000000000000000e+00  2.4427771486757828e-03 1.0053529871104116e-03 0.0000000000000000e+00  2.4075569787759083e-03 4.9009075305840501e-04 0.0000000000000000e+00  2.3964870457009054e-03 -2.3305463917333329e-05 0.0000000000000000e+00  2.4087066882100051e-03 -5.3681456440187153e-04 0.0000000000000000e+00  2.4448176156943707e-03 -1.0518438672072097e-03 0.0000000000000000e+00  3.2984899069235783e-03 1.1639595997314724e-03 0.0000000000000000e+00  3.2654801895887270e-03 5.6636941229558097e-04 0.0000000000000000e+00  3.2552694767150601e-03 -2.8181105210535369e-05 0.0000000000000000e+00  3.2676976164492163e-03 -6.2194391341314841e-04 0.0000000000000000e+00  3.3022891046910999e-03 -1.2188315846715467e-03 0.0000000000000000e+00  4.2866847778546156e-03 1.3186909776651695e-03 0.0000000000000000e+00  4.2538427653295531e-03 6.4034686447499536e-04 0.0000000000000000e+00  4.2433842465645988e-03 -3.2259329257887018e-05 0.0000000000000000e+00  4.2544608109103942e-03 -7.0440812320456581e-04 0.0000000000000000e+00  4.2879418822067581e-03 -1.3811150964068931e-03 0.0000000000000000e+00  5.3928458161925505e-03 1.4614517072264210e-03 0.0000000000000000e+00  5.3633009228766593e-03 7.0986528914657079e-04 0.0000000000000000e+00  5.3536498466227296e-03 -3.6010425876991613e-05 0.0000000000000000e+00  5.3643920528240931e-03 -7.8117576403700212e-04 0.0000000000000000e+00  5.3953218478175486e-03 -1.5320845169159456e-03 0.0000000000000000e+00  6.6073704811683235e-03 1.5924659968860819e-03 0.0000000000000000e+00  6.5796970409031956e-03 7.7378732510206306e-04 0.0000000000000000e+00  6.5706499490326784e-03 -3.9907370507791056e-05 0.0000000000000000e+00  6.5805803108384252e-03 -8.5316234541769789e-04 0.0000000000000000e+00  6.6091546834098989e-03 -1.6707993114477343e-03 0.0000000000000000e+00  7.9194068130616201e-03 1.7136113092927211e-03 0.0000000000000000e+00  7.8923829723610752e-03 8.3351102294197416e-04 0.0000000000000000e+00  7.8831908464522763e-03 -4.3590970897376636e-05 0.0000000000000000e+00  7.8923540167442421e-03 -9.2069327568669297e-04 0.0000000000000000e+00  7.9199676199654991e-03 -1.7996498292664545e-03 0.0000000000000000e+00  9.3184633583432725e-03 1.8309747898823602e-03 0.0000000000000000e+00  9.2926408250372863e-03 8.9210798567921886e-04 0.0000000000000000e+00  9.2838875435677544e-03 -4.6611714517530332e-05 0.0000000000000000e+00  9.2931764011544207e-03 -9.8556786907709601e-04 0.0000000000000000e+00  9.3195475557730622e-03 -1.9251644047405001e-03 0.0000000000000000e+00  1.0810117836204424e-02 1.9501262521054838e-03 0.0000000000000000e+00  1.0782658831873439e-02 9.5038488294680321e-04 0.0000000000000000e+00  1.0774112211915316e-02 -4.9874972157592556e-05 0.0000000000000000e+00  1.0783548033388645e-02 -1.0504648714564316e-03 0.0000000000000000e+00  1.0810852070943349e-02 -2.0493772994010198e-03 0.0000000000000000e+00  1.2391091859164411e-02 2.0706126246625056e-03 0.0000000000000000e+00  1.2364689662289348e-02 1.0096145701859495e-03 0.0000000000000000e+00  1.2356012205433448e-02 -5.3163391739909390e-05 0.0000000000000000e+00  1.2365471896348743e-02 -1.1154162090943470e-03 0.0000000000000000e+00  1.2392497109904406e-02 -2.1757932615148845e-03 0.0000000000000000e+00  1.4071004125330524e-02 2.1958666170909082e-03 0.0000000000000000e+00  1.4042753398975821e-02 1.0700698856500298e-03 0.0000000000000000e+00  1.4033742403936355e-02 -5.6064237449718542e-05 0.0000000000000000e+00  1.4042892432316999e-02 -1.1823078555627880e-03 0.0000000000000000e+00  1.4070996644516670e-02 -2.3070325142873819e-03 0.0000000000000000e+00  1.5853348163159992e-02 2.3236841872934068e-03 0.0000000000000000e+00  1.5825494856801486e-02 1.1315658988530826e-03 0.0000000000000000e+00  1.5816047623678140e-02 -5.8823469888506701e-05 0.0000000000000000e+00  1.5824906316859819e-02 -1.2494268334325043e-03 0.0000000000000000e+00  1.5852943648117703e-02 -2.4409544777986882e-03 0.0000000000000000e+00  1.7740065830809771e-02 2.4489037306078556e-03 0.0000000000000000e+00  1.7713842103581488e-02 1.1920138113665449e-03 0.0000000000000000e+00  1.7705360893081785e-02 -6.1021951961188938e-05 0.0000000000000000e+00  1.7714075793114417e-02 -1.3147966241952732e-03 0.0000000000000000e+00  1.7740482958824966e-02 -2.5727434052099938e-03 0.0000000000000000e+00  1.9729055245115028e-02 2.5655953391522132e-03 0.0000000000000000e+00  1.9704466909762457e-02 1.2472518716597158e-03 0.0000000000000000e+00  1.9696824055894437e-02 -6.4064856116048674e-05 0.0000000000000000e+00  1.9704889391950156e-02 -1.3758049214284797e-03 0.0000000000000000e+00  1.9729487754019306e-02 -2.6926388653321261e-03 0.0000000000000000e+00  2.1804752539239192e-02 2.6679448014053026e-03 0.0000000000000000e+00  2.1783856825908051e-02 1.2974189488717191e-03 0.0000000000000000e+00  2.1776671511554050e-02 -6.6207271714105939e-05 0.0000000000000000e+00  2.1783589273204045e-02 -1.4294194472214126e-03 0.0000000000000000e+00  2.1804347373734864e-02 -2.7994422609253465e-03 0.0000000000000000e+00  2.3958328536530567e-02 2.7582672006913663e-03 0.0000000000000000e+00  2.3938834363771099e-02 1.3413474200578096e-03 0.0000000000000000e+00  2.3932571654079859e-02 -6.7714555360819434e-05 0.0000000000000000e+00  2.3938526554943371e-02 -1.4768890027477897e-03 0.0000000000000000e+00  2.3957685245542291e-02 -2.8927974533047387e-03 0.0000000000000000e+00  2.6177791610258482e-02 2.8345332107230130e-03 0.0000000000000000e+00  2.6162949115373202e-02 1.3776395447318351e-03 0.0000000000000000e+00  2.6158200871612174e-02 -6.9471808583627191e-05 0.0000000000000000e+00  2.6163290812359508e-02 -1.5163728055930842e-03 0.0000000000000000e+00  2.6178336544415721e-02 -2.9719831564254022e-03 0.0000000000000000e+00  2.8455248723697323e-02 2.8935345168382910e-03 0.0000000000000000e+00  2.8442947843895713e-02 1.4066030643128619e-03 0.0000000000000000e+00  2.8438572128192736e-02 -7.0394058716213577e-05 0.0000000000000000e+00  2.8442030320314955e-02 -1.5474224956524771e-03 0.0000000000000000e+00  2.8453728673273993e-02 -3.0332598216334787e-03 0.0000000000000000e+00  3.0769870371917862e-02 2.9343320443920855e-03 0.0000000000000000e+00  3.0761420121463452e-02 1.4268979042030871e-03 0.0000000000000000e+00  3.0758417134432996e-02 -7.0395477131825104e-05 0.0000000000000000e+00  3.0760496405466038e-02 -1.5686146418069902e-03 0.0000000000000000e+00  3.0768389839670500e-02 -3.0748776585514045e-03 0.0000000000000000e+00  3.3106060034756239e-02 2.9573797286586261e-03 0.0000000000000000e+00  3.3101094514624028e-02 1.4399046596484796e-03 0.0000000000000000e+00  3.3099084710646341e-02 -7.0381917896170803e-05 0.0000000000000000e+00  3.3100848839910255e-02 -1.5807360326327644e-03 0.0000000000000000e+00  3.3104839044206559e-02 -3.0974008404249776e-03 0.0000000000000000e+00  3.5452437325372094e-02 2.9693276088174837e-03 0.0000000000000000e+00  3.5447174484407214e-02 1.4471740987350107e-03 0.0000000000000000e+00  3.5444973494554055e-02 -6.9848896168948796e-05 0.0000000000000000e+00  3.5445235709447208e-02 -1.5861515310685074e-03 0.0000000000000000e+00  3.5448328109700729e-02 -3.1043935457558632e-03 0.0000000000000000e+00  3.7792938759412330e-02 2.9734375864651718e-03 0.0000000000000000e+00  3.7790333088824804e-02 1.4524954400280052e-03 0.0000000000000000e+00  3.7787598425220045e-02 -6.6676242513180920e-05 0.0000000000000000e+00  3.7786617185168382e-02 -1.5854859869294533e-03 0.0000000000000000e+00  3.7786695043237929e-02 -3.1064964142514776e-03 0.0000000000000000e+00  </DataArray> 
</PointData> 
</Piece>
</UnstructuredGrid>
</VTKFile>