<?xml version="1.0"?>
<VTKFile type="UnstructuredGrid"  version="0.1"  >
<UnstructuredGrid>
<Piece  NumberOfPoints="135" NumberOfCells="208">
<Points>
<DataArray  type="Float64"  NumberOfComponents="3"  format="ascii">-0.05 0 0  -0.025 0 0  0 0 0  0.02500000000000001 0 0  0.05 0 0  -0.05 0.03846153846153846 0  -0.025 0.03846153846153846 0  0 0.03846153846153846 0  0.02500000000000001 0.03846153846153846 0  0.05 0.03846153846153846 0  -0.05 0.07692307692307693 0  -0.025 0.07692307692307693 0  0 0.07692307692307693 0  0.02500000000000001 0.07692307692307693 0  0.05 0.07692307692307693 0  -0.05 0.1153846153846154 0  -0.025 0.1153846153846154 0  0 0.1153846153846154 0  0.02500000000000001 0.1153846153846154 0  0.05 0.1153846153846154 0  -0.05 0.1538461538461539 0  -0.025 0.1538461538461539 0  0 0.1538461538461539 0  0.02500000000000001 0.1538461538461539 0  0.05 0.1538461538461539 0  -0.05 0.1923076923076923 0  -0.025 0.1923076923076923 0  0 0.1923076923076923 0  0.02500000000000001 0.1923076923076923 0  0.05 0.1923076923076923 0  -0.05 0.2307692307692308 0  -0.025 0.2307692307692308 0  0 0.2307692307692308 0  0.02500000000000001 0.2307692307692308 0  0.05 0.2307692307692308 0  -0.05 0.2692307692307692 0  -0.025 0.2692307692307692 0  0 0.2692307692307692 0  0.02500000000000001 0.2692307692307692 0  0.05 0.2692307692307692 0  -0.05 0.3076923076923077 0  -0.025 0.3076923076923077 0  0 0.3076923076923077 0  0.02500000000000001 0.3076923076923077 0  0.05 0.3076923076923077 0  -0.05 0.3461538461538461 0  -0.025 0.3461538461538461 0  0 0.3461538461538461 0  0.02500000000000001 0.3461538461538461 0  0.05 0.3461538461538461 0  -0.05 0.3846153846153846 0  -0.025 0.3846153846153846 0  0 0.3846153846153846 0  0.02500000000000001 0.3846153846153846 0  0.05 0.3846153846153846 0  -0.05 0.4230769230769231 0  -0.025 0.4230769230769231 0  0 0.4230769230769231 0  0.02500000000000001 0.4230769230769231 0  0.05 0.4230769230769231 0  -0.05 0.4615384615384616 0  -0.025 0.4615384615384616 0  0 0.4615384615384616 0  0.02500000000000001 0.4615384615384616 0  0.05 0.4615384615384616 0  -0.05 0.5 0  -0.025 0.5 0  0 0.5 0  0.02500000000000001 0.5 0  0.05 0.5 0  -0.05 0.5384615384615384 0  -0.025 0.5384615384615384 0  0 0.5384615384615384 0  0.02500000000000001 0.5384615384615384 0  0.05 0.5384615384615384 0  -0.05 0.5769230769230769 0  -0.025 0.5769230769230769 0  0 0.5769230769230769 0  0.02500000000000001 0.5769230769230769 0  0.05 0.5769230769230769 0  -0.05 0.6153846153846154 0  -0.025 0.6153846153846154 0  0 0.6153846153846154 0  0.02500000000000001 0.6153846153846154 0  0.05 0.6153846153846154 0  -0.05 0.6538461538461539 0  -0.025 0.6538461538461539 0  0 0.6538461538461539 0  0.02500000000000001 0.6538461538461539 0  0.05 0.6538461538461539 0  -0.05 0.6923076923076923 0  -0.025 0.6923076923076923 0  0 0.6923076923076923 0  0.02500000000000001 0.6923076923076923 0  0.05 0.6923076923076923 0  -0.05 0.7307692307692307 0  -0.025 0.7307692307692307 0  0 0.7307692307692307 0  0.02500000000000001 0.7307692307692307 0  0.05 0.7307692307692307 0  -0.05 0.7692307692307693 0  -0.025 0.7692307692307693 0  0 0.7692307692307693 0  0.02500000000000001 0.7692307692307693 0  0.05 0.7692307692307693 0  -0.05 0.8076923076923077 0  -0.025 0.8076923076923077 0  0 0.8076923076923077 0  0.02500000000000001 0.8076923076923077 0  0.05 0.8076923076923077 0  -0.05 0.8461538461538461 0  -0.025 0.8461538461538461 0  0 0.8461538461538461 0  0.02500000000000001 0.8461538461538461 0  0.05 0.8461538461538461 0  -0.05 0.8846153846153846 0  -0.025 0.8846153846153846 0  0 0.8846153846153846 0  0.02500000000000001 0.8846153846153846 0  0.05 0.8846153846153846 0  -0.05 0.9230769230769231 0  -0.025 0.9230769230769231 0  0 0.9230769230769231 0  0.02500000000000001 0.9230769230769231 0  0.05 0.9230769230769231 0  -0.05 0.9615384615384616 0  -0.025 0.9615384615384616 0  0 0.9615384615384616 0  0.02500000000000001 0.9615384615384616 0  0.05 0.9615384615384616 0  -0.05 1 0  -0.025 1 0  0 1 0  0.02500000000000001 1 0  0.05 1 0  </DataArray>
</Points>
<Cells>
<DataArray  type="UInt32"  Name="connectivity"  format="ascii">0 1 6  0 5 6  1 2 7  1 6 7  2 3 8  2 7 8  3 4 9  3 8 9  5 6 11  5 10 11  6 7 12  6 11 12  7 8 13  7 12 13  8 9 14  8 13 14  10 11 16  10 15 16  11 12 17  11 16 17  12 13 18  12 17 18  13 14 19  13 18 19  15 16 21  15 20 21  16 17 22  16 21 22  17 18 23  17 22 23  18 19 24  18 23 24  20 21 26  20 25 26  21 22 27  21 26 27  22 23 28  22 27 28  23 24 29  23 28 29  25 26 31  25 30 31  26 27 32  26 31 32  27 28 33  27 32 33  28 29 34  28 33 34  30 31 36  30 35 36  31 32 37  31 36 37  32 33 38  32 37 38  33 34 39  33 38 39  35 36 41  35 40 41  36 37 42  36 41 42  37 38 43  37 42 43  38 39 44  38 43 44  40 41 46  40 45 46  41 42 47  41 46 47  42 43 48  42 47 48  43 44 49  43 48 49  45 46 51  45 50 51  46 47 52  46 51 52  47 48 53  47 52 53  48 49 54  48 53 54  50 51 56  50 55 56  51 52 57  51 56 57  52 53 58  52 57 58  53 54 59  53 58 59  55 56 61  55 60 61  56 57 62  56 61 62  57 58 63  57 62 63  58 59 64  58 63 64  60 61 66  60 65 66  61 62 67  61 66 67  62 63 68  62 67 68  63 64 69  63 68 69  65 66 71  65 70 71  66 67 72  66 71 72  67 68 73  67 72 73  68 69 74  68 73 74  70 71 76  70 75 76  71 72 77  71 76 77  72 73 78  72 77 78  73 74 79  73 78 79  75 76 81  75 80 81  76 77 82  76 81 82  77 78 83  77 82 83  78 79 84  78 83 84  80 81 86  80 85 86  81 82 87  81 86 87  82 83 88  82 87 88  83 84 89  83 88 89  85 86 91  85 90 91  86 87 92  86 91 92  87 88 93  87 92 93  88 89 94  88 93 94  90 91 96  90 95 96  91 92 97  91 96 97  92 93 98  92 97 98  93 94 99  93 98 99  95 96 101  95 100 101  96 97 102  96 101 102  97 98 103  97 102 103  98 99 104  98 103 104  100 101 106  100 105 106  101 102 107  101 106 107  102 103 108  102 107 108  103 104 109  103 108 109  105 106 111  105 110 111  106 107 112  106 111 112  107 108 113  107 112 113  108 109 114  108 113 114  110 111 116  110 115 116  111 112 117  111 116 117  112 113 118  112 117 118  113 114 119  113 118 119  115 116 121  115 120 121  116 117 122  116 121 122  117 118 123  117 122 123  118 119 124  118 123 124  120 121 126  120 125 126  121 122 127  121 126 127  122 123 128  122 127 128  123 124 129  123 128 129  125 126 131  125 130 131  126 127 132  126 131 132  127 128 133  127 132 133  128 129 134  128 133 134  </DataArray>
<DataArray  type="UInt32"  Name="offsets"  format="ascii">3 6 9 12 15 18 21 24 27 30 33 36 39 42 45 48 51 54 57 60 63 66 69 72 75 78 81 84 87 90 93 96 99 102 105 108 111 114 117 120 123 126 129 132 135 138 141 144 147 150 153 156 159 162 165 168 171 174 177 180 183 186 189 192 195 198 201 204 207 210 213 216 219 222 225 228 231 234 237 240 243 246 249 252 255 258 261 264 267 270 273 276 279 282 285 288 291 294 297 300 303 306 309 312 315 318 321 324 327 330 333 336 339 342 345 348 351 354 357 360 363 366 369 372 375 378 381 384 387 390 393 396 399 402 405 408 411 414 417 420 423 426 429 432 435 438 441 444 447 450 453 456 459 462 465 468 471 474 477 480 483 486 489 492 495 498 501 504 507 510 513 516 519 522 525 528 531 534 537 540 543 546 549 552 555 558 561 564 567 570 573 576 579 582 585 588 591 594 597 600 603 606 609 612 615 618 621 624 </DataArray>
<DataArray  type="UInt8"  Name="types"  format="ascii">5 5 5 5 5 5 5 5 5 5 5 5 5 5 5 5 5 5 5 5 5 5 5 5 5 5 5 5 5 5 5 5 5 5 5 5 5 5 5 5 5 5 5 5 5 5 5 5 5 5 5 5 5 5 5 5 5 5 5 5 5 5 5 5 5 5 5 5 5 5 5 5 5 5 5 5 5 5 5 5 5 5 5 5 5 5 5 5 5 5 5 5 5 5 5 5 5 5 5 5 5 5 5 5 5 5 5 5 5 5 5 5 5 5 5 5 5 5 5 5 5 5 5 5 5 5 5 5 5 5 5 5 5 5 5 5 5 5 5 5 5 5 5 5 5 5 5 5 5 5 5 5 5 5 5 5 5 5 5 5 5 5 5 5 5 5 5 5 5 5 5 5 5 5 5 5 5 5 5 5 5 5 5 5 5 5 5 5 5 5 5 5 5 5 5 5 5 5 5 5 5 5 5 5 5 5 5 5 </DataArray>
</Cells>
<PointData  Vectors="Displacement"> 
<DataArray  type="Float64"  Name="Displacement"  NumberOfComponents="3" format="ascii">-4.7811847861199100e-16 8.6672530557084511e-18 0.0000000000000000e+00  0.0000000000000000e+00 0.0000000000000000e+00 0.0000000000000000e+00  0.0000000000000000e+00 0.0000000000000000e+00 0.0000000000000000e+00  -5.9514834460728384e-17 1.8033446582702863e-18 0.0000000000000000e+00  1.7854450338218516e-16 -5.4100339748108594e-18 0.0000000000000000e+00  7.1827530710191030e-04 1.0333093830165101e-03 0.0000000000000000e+00  5.0699235578846428e-04 4.8429976233151757e-04 0.0000000000000000e+00  4.2921356187130308e-04 -3.7935465085407593e-06 0.0000000000000000e+00  4.9728827322065815e-04 -4.8707472383512470e-04 0.0000000000000000e+00  7.1684960194184162e-04 -1.0505632471582999e-03 0.0000000000000000e+00  1.9807900254071335e-03 1.9766564066284291e-03 0.0000000000000000e+00  1.7912752722671816e-03 9.5986362438614135e-04 0.0000000000000000e+00  1.7283707047297753e-03 -9.3708118101432481e-06 0.0000000000000000e+00  1.7946261027470269e-03 -9.7979644812501974e-04 0.0000000000000000e+00  1.9878503583212696e-03 -1.9990563328542107e-03 0.0000000000000000e+00  3.9423708584153585e-03 2.8331001576502794e-03 0.0000000000000000e+00  3.7720728907491472e-03 1.3854038335696717e-03 0.0000000000000000e+00  3.7162641979830244e-03 -1.6223547758232334e-05 0.0000000000000000e+00  3.7758350913373170e-03 -1.4180993725993272e-03 0.0000000000000000e+00  3.9499970386543577e-03 -2.8651525088942303e-03 0.0000000000000000e+00  6.5226541314645408e-03 3.6015690394617002e-03 0.0000000000000000e+00  6.3682900264624871e-03 1.7701752675677003e-03 0.0000000000000000e+00  6.3163756732809015e-03 -2.1788758631324639e-05 0.0000000000000000e+00  6.3693823294147618e-03 -1.8137406631952881e-03 0.0000000000000000e+00  6.5261722457882311e-03 -3.6438957607993882e-03 0.0000000000000000e+00  9.6543526170220755e-03 4.2959449625819398e-03 0.0000000000000000e+00  9.5147281079125297e-03 2.1183209936430970e-03 0.0000000000000000e+00  9.4678438782568024e-03 -2.6147222861655510e-05 0.0000000000000000e+00  9.5161906686839111e-03 -2.1707166038172172e-03 0.0000000000000000e+00  9.6585590503913323e-03 -4.3485385771207825e-03 0.0000000000000000e+00  1.3291147264703844e-02 4.9279600486924298e-03 0.0000000000000000e+00  1.3162948428233815e-02 2.4343436942746697e-03 0.0000000000000000e+00  1.3120665160628741e-02 -3.0275866572125476e-05 0.0000000000000000e+00  1.3164284967650633e-02 -2.4954958658580982e-03 0.0000000000000000e+00  1.3293965488139266e-02 -4.9885969025896650e-03 0.0000000000000000e+00  1.7386642761633469e-02 5.5051908637710921e-03 0.0000000000000000e+00  1.7271305182497712e-02 2.7217245367280132e-03 0.0000000000000000e+00  1.7232744559505145e-02 -3.4431238636134849e-05 0.0000000000000000e+00  1.7272158381234498e-02 -2.7900464959184005e-03 0.0000000000000000e+00  1.7389777734123254e-02 -5.5723056977316663e-03 0.0000000000000000e+00  2.1909293192736899e-02 6.0307737397062343e-03 0.0000000000000000e+00  2.1802526694966583e-02 2.9839172273078930e-03 0.0000000000000000e+00  2.1766746493074765e-02 -3.6770563483063908e-05 0.0000000000000000e+00  2.1802624052225706e-02 -3.0575568167375464e-03 0.0000000000000000e+00  2.1909883319929740e-02 -6.1041086570609105e-03 0.0000000000000000e+00  2.6811959212330882e-02 6.5093352010774435e-03 0.0000000000000000e+00  2.6715332613321319e-02 3.2232347286751664e-03 0.0000000000000000e+00  2.6683063041424579e-02 -3.9510643520502429e-05 0.0000000000000000e+00  2.6715933275119858e-02 -3.3015316144335755e-03 0.0000000000000000e+00  2.6813375735670719e-02 -6.5864514556591347e-03 0.0000000000000000e+00  3.2066669393101703e-02 6.9447598785758891e-03 0.0000000000000000e+00  3.1979224489202436e-02 3.4400385029155931e-03 0.0000000000000000e+00  3.1949561837999886e-02 -4.1708502486726315e-05 0.0000000000000000e+00  3.1978630690090000e-02 -3.5224718321363231e-03 0.0000000000000000e+00  3.2066904410923552e-02 -7.0255635226053308e-03 0.0000000000000000e+00  3.7638418239574756e-02 7.3358034290112390e-03 0.0000000000000000e+00  3.7558426715942214e-02 3.6368062719273394e-03 0.0000000000000000e+00  3.7530622420000014e-02 -4.2226864710417391e-05 0.0000000000000000e+00  3.7556572314723084e-02 -3.7222218024270193e-03 0.0000000000000000e+00  3.7636520774684955e-02 -7.4216611203720695e-03 0.0000000000000000e+00  4.3488665964223523e-02 7.6887949573961924e-03 0.0000000000000000e+00  4.3417993293442321e-02 3.8138345796308445e-03 0.0000000000000000e+00  4.3394327836224093e-02 -4.3367381158587006e-05 0.0000000000000000e+00  4.3418291120743038e-02 -3.9012391904737508e-03 0.0000000000000000e+00  4.3489407083983737e-02 -7.7768091369184080e-03 0.0000000000000000e+00  4.9598419320397942e-02 8.0083075191831228e-03 0.0000000000000000e+00  4.9532196489935530e-02 3.9738594629841889e-03 0.0000000000000000e+00  4.9509667501876825e-02 -4.4021295728556854e-05 0.0000000000000000e+00  4.9530920965548328e-02 -4.0624492845650157e-03 0.0000000000000000e+00  4.9595812849647612e-02 -8.0961985950064232e-03 0.0000000000000000e+00  5.5934837671054567e-02 8.2990465982015742e-03 0.0000000000000000e+00  5.5876022864947313e-02 4.1200432708746928e-03 0.0000000000000000e+00  5.5855577773748874e-02 -4.3998249761296342e-05 0.0000000000000000e+00  5.5874305583965271e-02 -4.2081801969660057e-03 0.0000000000000000e+00  5.5932399888887561e-02 -8.3868992949367987e-03 0.0000000000000000e+00  6.2487357239320689e-02 8.5621726706354897e-03 0.0000000000000000e+00  6.2433551828590582e-02 4.2514404217576631e-03 0.0000000000000000e+00  6.2415002377698849e-02 -4.3821171134837441e-05 0.0000000000000000e+00  6.2431788272053340e-02 -4.3388798739281802e-03 0.0000000000000000e+00  6.2484315332567000e-02 -8.6490734838536396e-03 0.0000000000000000e+00  6.9227837870427758e-02 8.7955755937159444e-03 0.0000000000000000e+00  6.9180332774008549e-02 4.3685748239882492e-03 0.0000000000000000e+00  6.9163603161453063e-02 -4.3755141986453089e-05 0.0000000000000000e+00  6.9178353586942271e-02 -4.4560825184062156e-03 0.0000000000000000e+00  6.9224885045613346e-02 -8.8823023912647549e-03 0.0000000000000000e+00  7.6135990540692755e-02 9.0009910757618498e-03 0.0000000000000000e+00  7.6094705247062258e-02 4.4717659253352337e-03 0.0000000000000000e+00  7.6079872341967544e-02 -4.3284770294409713e-05 0.0000000000000000e+00  7.6092195613917377e-02 -4.5583980169857036e-03 0.0000000000000000e+00  7.6132400981320805e-02 -9.0873279237877295e-03 0.0000000000000000e+00  8.3191823565754039e-02 9.1799385811703622e-03 0.0000000000000000e+00  8.3154475566746461e-02 4.5621418562694126e-03 0.0000000000000000e+00  8.3141456192540444e-02 -4.2274215546375198e-05 0.0000000000000000e+00  8.3152822456994527e-02 -4.6468627567041523e-03 0.0000000000000000e+00  8.3188324958661575e-02 -9.2645995943540001e-03 0.0000000000000000e+00  9.0369601909387698e-02 9.3353135191340635e-03 0.0000000000000000e+00  9.0338789563595215e-02 4.6405624086547775e-03 0.0000000000000000e+00  9.0328068196210726e-02 -4.1773632662564381e-05 0.0000000000000000e+00  9.0337677522096690e-02 -4.7234774890291117e-03 0.0000000000000000e+00  9.0367689097553383e-02 -9.4169240556752822e-03 0.0000000000000000e+00  9.7660465585720765e-02 9.4697185501134429e-03 0.0000000000000000e+00  9.7631905512947578e-02 4.7086884586600456e-03 0.0000000000000000e+00  9.7621608663702064e-02 -3.9874833696212758e-05 0.0000000000000000e+00  9.7629425761935562e-02 -4.7880732947392568e-03 0.0000000000000000e+00  9.7655655601260244e-02 -9.5474989914798823e-03 0.0000000000000000e+00  1.0504099262187704e-01 9.5837608470623076e-03 0.0000000000000000e+00  1.0501853205845710e-01 4.7666610085853652e-03 0.0000000000000000e+00  1.0501030202386545e-01 -3.7513705071726675e-05 0.0000000000000000e+00  1.0501647578807270e-01 -4.8418610218321665e-03 0.0000000000000000e+00  1.0503744814007290e-01 -9.6586503387629842e-03 0.0000000000000000e+00  1.1250527368956204e-01 9.6753632091513518e-03 0.0000000000000000e+00  1.1248747333051091e-01 4.8122592861955292e-03 0.0000000000000000e+00  1.1248108903727924e-01 -3.6201385848710175e-05 0.0000000000000000e+00  1.1248566018000977e-01 -4.8842348382439806e-03 0.0000000000000000e+00  1.1250181015672446e-01 -9.7454783851892730e-03 0.0000000000000000e+00  1.2003018608603659e-01 9.7390259309103073e-03 0.0000000000000000e+00  1.2001729299179988e-01 4.8454513974033019e-03 0.0000000000000000e+00  1.2001161438734592e-01 -3.3648275912976352e-05 0.0000000000000000e+00  1.2001347817315083e-01 -4.9132571505249309e-03 0.0000000000000000e+00  1.2002402533928090e-01 -9.8057433957587092e-03 0.0000000000000000e+00  1.2758449261943089e-01 9.7749980186281338e-03 0.0000000000000000e+00  1.2757779483247131e-01 4.8665884096458665e-03 0.0000000000000000e+00  1.2757450621930266e-01 -3.0892437343986508e-05 0.0000000000000000e+00  1.2757529586679239e-01 -4.9291678470125624e-03 0.0000000000000000e+00  1.2758051655842401e-01 -9.8382562112054959e-03 0.0000000000000000e+00  1.3515273758557422e-01 9.7919470497781682e-03 0.0000000000000000e+00  1.3514695322150691e-01 4.8772105062225924e-03 0.0000000000000000e+00  1.3514495640117860e-01 -2.9039849709997250e-05 0.0000000000000000e+00  1.3514601632580883e-01 -4.9358185085231054e-03 0.0000000000000000e+00  1.3514955650563182e-01 -9.8482647801875298e-03 0.0000000000000000e+00  1.4271432976066342e-01 9.7970295050331929e-03 0.0000000000000000e+00  1.4271099891355982e-01 4.8835187823152047e-03 0.0000000000000000e+00  1.4270817156160379e-01 -2.6561083319935273e-05 0.0000000000000000e+00  1.4270754324450508e-01 -4.9366481701582851e-03 0.0000000000000000e+00  1.4270757449797561e-01 -9.8480921769068773e-03 0.0000000000000000e+00  </DataArray> 
</PointData> 
</Piece>
</UnstructuredGrid>
</VTKFile>