<?xml version="1.0"?>
<VTKFile type="UnstructuredGrid"  version="0.1"  >
<UnstructuredGrid>
<Piece  NumberOfPoints="135" NumberOfCells="208">
<Points>
<DataArray  type="Float64"  NumberOfComponents="3"  format="ascii">-0.05 0 0  -0.025 0 0  0 0 0  0.02500000000000001 0 0  0.05 0 0  -0.05 0.03846153846153846 0  -0.025 0.03846153846153846 0  0 0.03846153846153846 0  0.02500000000000001 0.03846153846153846 0  0.05 0.03846153846153846 0  -0.05 0.07692307692307693 0  -0.025 0.07692307692307693 0  0 0.07692307692307693 0  0.02500000000000001 0.07692307692307693 0  0.05 0.07692307692307693 0  -0.05 0.1153846153846154 0  -0.025 0.1153846153846154 0  0 0.1153846153846154 0  0.02500000000000001 0.1153846153846154 0  0.05 0.1153846153846154 0  -0.05 0.1538461538461539 0  -0.025 0.1538461538461539 0  0 0.1538461538461539 0  0.02500000000000001 0.1538461538461539 0  0.05 0.1538461538461539 0  -0.05 0.1923076923076923 0  -0.025 0.1923076923076923 0  0 0.1923076923076923 0  0.02500000000000001 0.1923076923076923 0  0.05 0.1923076923076923 0  -0.05 0.2307692307692308 0  -0.025 0.2307692307692308 0  0 0.2307692307692308 0  0.02500000000000001 0.2307692307692308 0  0.05 0.2307692307692308 0  -0.05 0.2692307692307692 0  -0.025 0.2692307692307692 0  0 0.2692307692307692 0  0.02500000000000001 0.2692307692307692 0  0.05 0.2692307692307692 0  -0.05 0.3076923076923077 0  -0.025 0.3076923076923077 0  0 0.3076923076923077 0  0.02500000000000001 0.3076923076923077 0  0.05 0.3076923076923077 0  -0.05 0.3461538461538461 0  -0.025 0.3461538461538461 0  0 0.3461538461538461 0  0.02500000000000001 0.3461538461538461 0  0.05 0.3461538461538461 0  -0.05 0.3846153846153846 0  -0.025 0.3846153846153846 0  0 0.3846153846153846 0  0.02500000000000001 0.3846153846153846 0  0.05 0.3846153846153846 0  -0.05 0.4230769230769231 0  -0.025 0.4230769230769231 0  0 0.4230769230769231 0  0.02500000000000001 0.4230769230769231 0  0.05 0.4230769230769231 0  -0.05 0.4615384615384616 0  -0.025 0.4615384615384616 0  0 0.4615384615384616 0  0.02500000000000001 0.4615384615384616 0  0.05 0.4615384615384616 0  -0.05 0.5 0  -0.025 0.5 0  0 0.5 0  0.02500000000000001 0.5 0  0.05 0.5 0  -0.05 0.5384615384615384 0  -0.025 0.5384615384615384 0  0 0.5384615384615384 0  0.02500000000000001 0.5384615384615384 0  0.05 0.5384615384615384 0  -0.05 0.5769230769230769 0  -0.025 0.5769230769230769 0  0 0.5769230769230769 0  0.02500000000000001 0.5769230769230769 0  0.05 0.5769230769230769 0  -0.05 0.6153846153846154 0  -0.025 0.6153846153846154 0  0 0.6153846153846154 0  0.02500000000000001 0.6153846153846154 0  0.05 0.6153846153846154 0  -0.05 0.6538461538461539 0  -0.025 0.6538461538461539 0  0 0.6538461538461539 0  0.02500000000000001 0.6538461538461539 0  0.05 0.6538461538461539 0  -0.05 0.6923076923076923 0  -0.025 0.6923076923076923 0  0 0.6923076923076923 0  0.02500000000000001 0.6923076923076923 0  0.05 0.6923076923076923 0  -0.05 0.7307692307692307 0  -0.025 0.7307692307692307 0  0 0.7307692307692307 0  0.02500000000000001 0.7307692307692307 0  0.05 0.7307692307692307 0  -0.05 0.7692307692307693 0  -0.025 0.7692307692307693 0  0 0.7692307692307693 0  0.02500000000000001 0.7692307692307693 0  0.05 0.7692307692307693 0  -0.05 0.8076923076923077 0  -0.025 0.8076923076923077 0  0 0.8076923076923077 0  0.02500000000000001 0.8076923076923077 0  0.05 0.8076923076923077 0  -0.05 0.8461538461538461 0  -0.025 0.8461538461538461 0  0 0.8461538461538461 0  0.02500000000000001 0.8461538461538461 0  0.05 0.8461538461538461 0  -0.05 0.8846153846153846 0  -0.025 0.8846153846153846 0  0 0.8846153846153846 0  0.02500000000000001 0.8846153846153846 0  0.05 0.8846153846153846 0  -0.05 0.9230769230769231 0  -0.025 0.9230769230769231 0  0 0.9230769230769231 0  0.02500000000000001 0.9230769230769231 0  0.05 0.9230769230769231 0  -0.05 0.9615384615384616 0  -0.025 0.9615384615384616 0  0 0.9615384615384616 0  0.02500000000000001 0.9615384615384616 0  0.05 0.9615384615384616 0  -0.05 1 0  -0.025 1 0  0 1 0  0.02500000000000001 1 0  0.05 1 0  </DataArray>
</Points>
<Cells>
<DataArray  type="UInt32"  Name="connectivity"  format="ascii">0 1 6  0 5 6  1 2 7  1 6 7  2 3 8  2 7 8  3 4 9  3 8 9  5 6 11  5 10 11  6 7 12  6 11 12  7 8 13  7 12 13  8 9 14  8 13 14  10 11 16  10 15 16  11 12 17  11 16 17  12 13 18  12 17 18  13 14 19  13 18 19  15 16 21  15 20 21  16 17 22  16 21 22  17 18 23  17 22 23  18 19 24  18 23 24  20 21 26  20 25 26  21 22 27  21 26 27  22 23 28  22 27 28  23 24 29  23 28 29  25 26 31  25 30 31  26 27 32  26 31 32  27 28 33  27 32 33  28 29 34  28 33 34  30 31 36  30 35 36  31 32 37  31 36 37  32 33 38  32 37 38  33 34 39  33 38 39  35 36 41  35 40 41  36 37 42  36 41 42  37 38 43  37 42 43  38 39 44  38 43 44  40 41 46  40 45 46  41 42 47  41 46 47  42 43 48  42 47 48  43 44 49  43 48 49  45 46 51  45 50 51  46 47 52  46 51 52  47 48 53  47 52 53  48 49 54  48 53 54  50 51 56  50 55 56  51 52 57  51 56 57  52 53 58  52 57 58  53 54 59  53 58 59  55 56 61  55 60 61  56 57 62  56 61 62  57 58 63  57 62 63  58 59 64  58 63 64  60 61 66  60 65 66  61 62 67  61 66 67  62 63 68  62 67 68  63 64 69  63 68 69  65 66 71  65 70 71  66 67 72  66 71 72  67 68 73  67 72 73  68 69 74  68 73 74  70 71 76  70 75 76  71 72 77  71 76 77  72 73 78  72 77 78  73 74 79  73 78 79  75 76 81  75 80 81  76 77 82  76 81 82  77 78 83  77 82 83  78 79 84  78 83 84  80 81 86  80 85 86  81 82 87  81 86 87  82 83 88  82 87 88  83 84 89  83 88 89  85 86 91  85 90 91  86 87 92  86 91 92  87 88 93  87 92 93  88 89 94  88 93 94  90 91 96  90 95 96  91 92 97  91 96 97  92 93 98  92 97 98  93 94 99  93 98 99  95 96 101  95 100 101  96 97 102  96 101 102  97 98 103  97 102 103  98 99 104  98 103 104  100 101 106  100 105 106  101 102 107  101 106 107  102 103 108  102 107 108  103 104 109  103 108 109  105 106 111  105 110 111  106 107 112  106 111 112  107 108 113  107 112 113  108 109 114  108 113 114  110 111 116  110 115 116  111 112 117  111 116 117  112 113 118  112 117 118  113 114 119  113 118 119  115 116 121  115 120 121  116 117 122  116 121 122  117 118 123  117 122 123  118 119 124  118 123 124  120 121 126  120 125 126  121 122 127  121 126 127  122 123 128  122 127 128  123 124 129  123 128 129  125 126 131  125 130 131  126 127 132  126 131 132  127 128 133  127 132 133  128 129 134  128 133 134  </DataArray>
<DataArray  type="UInt32"  Name="offsets"  format="ascii">3 6 9 12 15 18 21 24 27 30 33 36 39 42 45 48 51 54 57 60 63 66 69 72 75 78 81 84 87 90 93 96 99 102 105 108 111 114 117 120 123 126 129 132 135 138 141 144 147 150 153 156 159 162 165 168 171 174 177 180 183 186 189 192 195 198 201 204 207 210 213 216 219 222 225 228 231 234 237 240 243 246 249 252 255 258 261 264 267 270 273 276 279 282 285 288 291 294 297 300 303 306 309 312 315 318 321 324 327 330 333 336 339 342 345 348 351 354 357 360 363 366 369 372 375 378 381 384 387 390 393 396 399 402 405 408 411 414 417 420 423 426 429 432 435 438 441 444 447 450 453 456 459 462 465 468 471 474 477 480 483 486 489 492 495 498 501 504 507 510 513 516 519 522 525 528 531 534 537 540 543 546 549 552 555 558 561 564 567 570 573 576 579 582 585 588 591 594 597 600 603 606 609 612 615 618 621 624 </DataArray>
<DataArray  type="UInt8"  Name="types"  format="ascii">5 5 5 5 5 5 5 5 5 5 5 5 5 5 5 5 5 5 5 5 5 5 5 5 5 5 5 5 5 5 5 5 5 5 5 5 5 5 5 5 5 5 5 5 5 5 5 5 5 5 5 5 5 5 5 5 5 5 5 5 5 5 5 5 5 5 5 5 5 5 5 5 5 5 5 5 5 5 5 5 5 5 5 5 5 5 5 5 5 5 5 5 5 5 5 5 5 5 5 5 5 5 5 5 5 5 5 5 5 5 5 5 5 5 5 5 5 5 5 5 5 5 5 5 5 5 5 5 5 5 5 5 5 5 5 5 5 5 5 5 5 5 5 5 5 5 5 5 5 5 5 5 5 5 5 5 5 5 5 5 5 5 5 5 5 5 5 5 5 5 5 5 5 5 5 5 5 5 5 5 5 5 5 5 5 5 5 5 5 5 5 5 5 5 5 5 5 5 5 5 5 5 5 5 5 5 5 5 </DataArray>
</Cells>
<PointData  Vectors="Displacement"> 
<DataArray  type="Float64"  Name="Displacement"  NumberOfComponents="3" format="ascii">-4.7229132747612462e-16 4.6255325497266338e-18 0.0000000000000000e+00  0.0000000000000000e+00 0.0000000000000000e+00 0.0000000000000000e+00  0.0000000000000000e+00 0.0000000000000000e+00 0.0000000000000000e+00  -5.6386572937471410e-17 9.0284921563634494e-19 0.0000000000000000e+00  1.6915971881241425e-16 -2.7085476469090350e-18 0.0000000000000000e+00  2.3462438554143215e-04 3.3513073713888888e-04 0.0000000000000000e+00  1.6495507032740674e-04 1.5545271133564516e-04 0.0000000000000000e+00  1.4017214378152218e-04 -4.3174258090286300e-06 0.0000000000000000e+00  1.6362921958215179e-04 -1.6289606816103492e-04 0.0000000000000000e+00  2.3689965431187161e-04 -3.4793064396901942e-04 0.0000000000000000e+00  6.4804376582618844e-04 6.4211280353426020e-04 0.0000000000000000e+00  5.8612699999941961e-04 3.0803490703492389e-04 0.0000000000000000e+00  5.6687399960020628e-04 -9.4773331680007673e-06 0.0000000000000000e+00  5.8934006811732877e-04 -3.2844748342936115e-04 0.0000000000000000e+00  6.5413052583602809e-04 -6.6388013733867780e-04 0.0000000000000000e+00  1.2954534359191860e-03 9.2002777375898442e-04 0.0000000000000000e+00  1.2405311052494513e-03 4.4391033141336555e-04 0.0000000000000000e+00  1.2241142513559667e-03 -1.5035181107553285e-05 0.0000000000000000e+00  1.2446241255439439e-03 -4.7470315575105153e-04 0.0000000000000000e+00  1.3025983869888352e-03 -9.5113166971556808e-04 0.0000000000000000e+00  2.1471273700022502e-03 1.1626600568783849e-03 0.0000000000000000e+00  2.0990170127220291e-03 5.6275723588009030e-04 0.0000000000000000e+00  2.0846990489001324e-03 -2.0410509248077382e-05 0.0000000000000000e+00  2.1024092799870929e-03 -6.0399821884104231e-04 0.0000000000000000e+00  2.1533395294764256e-03 -1.2031244275000489e-03 0.0000000000000000e+00  3.1695040608619189e-03 1.3727739374361279e-03 0.0000000000000000e+00  3.1275521033040021e-03 6.6713407660029262e-04 0.0000000000000000e+00  3.1146462659359430e-03 -2.5091970321553271e-05 0.0000000000000000e+00  3.1308727360160114e-03 -7.1746272677795507e-04 0.0000000000000000e+00  3.1753642889025082e-03 -1.4222220269044575e-03 0.0000000000000000e+00  4.3423533766498270e-03 1.5586934394910133e-03 0.0000000000000000e+00  4.3032727347448530e-03 7.6033387041004458e-04 0.0000000000000000e+00  4.2910705889536178e-03 -2.9390511263087525e-05 0.0000000000000000e+00  4.3053987866723481e-03 -8.1899916034919925e-04 0.0000000000000000e+00  4.3458964347457977e-03 -1.6172937578219472e-03 0.0000000000000000e+00  5.6445542638982292e-03 1.7299176436772552e-03 0.0000000000000000e+00  5.6087205792749208e-03 8.4516694277252081e-04 0.0000000000000000e+00  5.5981496980041070e-03 -3.3109140537849578e-05 0.0000000000000000e+00  5.6115460837574205e-03 -9.1223045779776875e-04 0.0000000000000000e+00  5.6489547977987362e-03 -1.7963617992717870e-03 0.0000000000000000e+00  7.0755721811218888e-03 1.8929896872915335e-03 0.0000000000000000e+00  7.0405044992843859e-03 9.2635235701268978e-04 0.0000000000000000e+00  7.0298692462826577e-03 -3.6756365454087902e-05 0.0000000000000000e+00  7.0423430298061935e-03 -1.0001575048963682e-03 0.0000000000000000e+00  7.0785264132747373e-03 -1.9667097519080537e-03 0.0000000000000000e+00  8.6264105998493708e-03 2.0500962760087943e-03 0.0000000000000000e+00  8.5927445872596552e-03 1.0040533380830208e-03 0.0000000000000000e+00  8.5826786932615244e-03 -3.9707083657993589e-05 0.0000000000000000e+00  8.5950585586321553e-03 -1.0840439190653113e-03 0.0000000000000000e+00  8.6296179934774765e-03 -2.1299204272882399e-03 0.0000000000000000e+00  1.0296008010017260e-02 2.2054135715821981e-03 0.0000000000000000e+00  1.0262316179397898e-02 1.0812591812585505e-03 0.0000000000000000e+00  1.0252592942789480e-02 -4.2303316774012841e-05 0.0000000000000000e+00  1.0264775199732559e-02 -1.1659949619152558e-03 0.0000000000000000e+00  1.0299156522139830e-02 -2.2896610404051034e-03 0.0000000000000000e+00  1.2089395118632803e-02 2.3641771555795292e-03 0.0000000000000000e+00  1.2055116451093011e-02 1.1586338236678562e-03 0.0000000000000000e+00  1.2045259743465899e-02 -4.4367133338808464e-05 0.0000000000000000e+00  1.2057223316843406e-02 -1.2471256842665241e-03 0.0000000000000000e+00  1.2091716591049686e-02 -2.4518252260225071e-03 0.0000000000000000e+00  1.4008251876110130e-02 2.5223432631880289e-03 0.0000000000000000e+00  1.3975685462928947e-02 1.2357331947522470e-03 0.0000000000000000e+00  1.3966233565514151e-02 -4.5449697523573899e-05 0.0000000000000000e+00  1.3977478321902215e-02 -1.3269012137187835e-03 0.0000000000000000e+00  1.4010499591133884e-02 -2.6120588389542637e-03 0.0000000000000000e+00  1.6056274358204507e-02 2.6732247935413495e-03 0.0000000000000000e+00  1.6024326202628340e-02 1.3098377541171039e-03 0.0000000000000000e+00  1.6014112761031544e-02 -4.6296677213852208e-05 0.0000000000000000e+00  1.6024120199869624e-02 -1.4021608774057758e-03 0.0000000000000000e+00  1.6055370479458018e-02 -2.7647321204192091e-03 0.0000000000000000e+00  1.8214622256516710e-02 2.8101196676515688e-03 0.0000000000000000e+00  1.8187055341928004e-02 1.3778872169489173e-03 0.0000000000000000e+00  1.8178646028622653e-02 -4.6336382283240543e-05 0.0000000000000000e+00  1.8187929219909481e-02 -1.4712937198707609e-03 0.0000000000000000e+00  1.8215699671366142e-02 -2.9032888350998616e-03 0.0000000000000000e+00  2.0477315401092124e-02 2.9318912245683186e-03 0.0000000000000000e+00  2.0452180216244047e-02 1.4384788750462037e-03 0.0000000000000000e+00  2.0444656614816464e-02 -4.6221335614044785e-05 0.0000000000000000e+00  2.0452531756192167e-02 -1.5313116840917186e-03 0.0000000000000000e+00  2.0476666941338970e-02 -3.0245459529761902e-03 0.0000000000000000e+00  2.2824909744872113e-02 3.0371134421108949e-03 0.0000000000000000e+00  2.2803240325105362e-02 1.4917274761483206e-03 0.0000000000000000e+00  2.2796658345372273e-02 -4.5659275606769209e-05 0.0000000000000000e+00  2.2804189903541647e-02 -1.5831230888395005e-03 0.0000000000000000e+00  2.2825306151975481e-02 -3.1278843585852518e-03 0.0000000000000000e+00  2.5244677319249832e-02 3.1276661908290824e-03 0.0000000000000000e+00  2.5225841376124034e-02 1.5377725893708299e-03 0.0000000000000000e+00  2.5220674401474900e-02 -4.4992873200885526e-05 0.0000000000000000e+00  2.5226831869591376e-02 -1.6271850390193921e-03 0.0000000000000000e+00  2.5244357493834135e-02 -3.2147893543582585e-03 0.0000000000000000e+00  2.7727839680135719e-02 3.2064025286463200e-03 0.0000000000000000e+00  2.7710556363363847e-02 1.5782320624607839e-03 0.0000000000000000e+00  2.7704977392282358e-02 -4.3961252828702996e-05 0.0000000000000000e+00  2.7709972396115192e-02 -1.6645584665881858e-03 0.0000000000000000e+00  2.7725786469521303e-02 -3.2905828362947615e-03 0.0000000000000000e+00  3.0261296823572394e-02 3.2737628679460578e-03 0.0000000000000000e+00  3.0247509676798526e-02 1.6128145221035355e-03 0.0000000000000000e+00  3.0243177690655165e-02 -4.2219986292822170e-05 0.0000000000000000e+00  3.0246920177828471e-02 -1.6971836309628780e-03 0.0000000000000000e+00  3.0259998736166031e-02 -3.3566099316718104e-03 0.0000000000000000e+00  3.2847541607011220e-02 3.3320201007719977e-03 0.0000000000000000e+00  3.2834826172596213e-02 1.6420739331616243e-03 0.0000000000000000e+00  3.2831127498075402e-02 -4.0425280672963786e-05 0.0000000000000000e+00  3.2834344617249871e-02 -1.7231966405247699e-03 0.0000000000000000e+00  3.2845307451221051e-02 -3.4125483141757436e-03 0.0000000000000000e+00  3.5471935201055474e-02 3.3778106925492213e-03 0.0000000000000000e+00  3.5463126432930765e-02 1.6654982006625895e-03 0.0000000000000000e+00  3.5460792297319556e-02 -3.8744971536173695e-05 0.0000000000000000e+00  3.5463256168327247e-02 -1.7430046887224745e-03 0.0000000000000000e+00  3.5470958521075228e-02 -3.4543171740960845e-03 0.0000000000000000e+00  3.8128281496882702e-02 3.4088950072651467e-03 0.0000000000000000e+00  3.8121769769674456e-02 1.6821047279673134e-03 0.0000000000000000e+00  3.8119959571381049e-02 -3.6363824838112692e-05 0.0000000000000000e+00  3.8121118964980875e-02 -1.7548259659001585e-03 0.0000000000000000e+00  3.8126028042107879e-02 -3.4797892650087476e-03 0.0000000000000000e+00  4.0796235336750773e-02 3.4247574016112343e-03 0.0000000000000000e+00  4.0792019225915972e-02 1.6926610679091389e-03 0.0000000000000000e+00  4.0790673081630244e-02 -3.3855224656057111e-05 0.0000000000000000e+00  4.0791498914910046e-02 -1.7598850809842006e-03 0.0000000000000000e+00  4.0794017162646121e-02 -3.4905474429949030e-03 0.0000000000000000e+00  4.3462093473023745e-02 3.4300706384809095e-03 0.0000000000000000e+00  4.3460106597757162e-02 1.6976088969531554e-03 0.0000000000000000e+00  4.3459729012053874e-02 -3.1674302127821685e-05 0.0000000000000000e+00  4.3459587751020143e-02 -1.7611494518307885e-03 0.0000000000000000e+00  4.3460267607035925e-02 -3.4913309910391131e-03 0.0000000000000000e+00  4.6130666988147252e-02 3.4325871181308887e-03 0.0000000000000000e+00  4.6126763795349718e-02 1.7001829890370764e-03 0.0000000000000000e+00  4.6124815984994780e-02 -2.9286394023753970e-05 0.0000000000000000e+00  4.6124297797806163e-02 -1.7594113057368130e-03 0.0000000000000000e+00  4.6125944059449413e-02 -3.4899619347277923e-03 0.0000000000000000e+00  4.8791173712395115e-02 3.4342411180936336e-03 0.0000000000000000e+00  4.8789207784896586e-02 1.7040793081536561e-03 0.0000000000000000e+00  4.8788230176841488e-02 -2.6492413123998721e-05 0.0000000000000000e+00  4.8788554307007119e-02 -1.7579520404106953e-03 0.0000000000000000e+00  4.8789014663369254e-02 -3.4902206016408990e-03 0.0000000000000000e+00  </DataArray> 
</PointData> 
</Piece>
</UnstructuredGrid>
</VTKFile>