<?xml version="1.0"?>
<VTKFile type="UnstructuredGrid"  version="0.1"  >
<UnstructuredGrid>
<Piece  NumberOfPoints="135" NumberOfCells="208">
<Points>
<DataArray  type="Float64"  NumberOfComponents="3"  format="ascii">-0.05 0 0  -0.025 0 0  0 0 0  0.02500000000000001 0 0  0.05 0 0  -0.05 0.03846153846153846 0  -0.025 0.03846153846153846 0  0 0.03846153846153846 0  0.02500000000000001 0.03846153846153846 0  0.05 0.03846153846153846 0  -0.05 0.07692307692307693 0  -0.025 0.07692307692307693 0  0 0.07692307692307693 0  0.02500000000000001 0.07692307692307693 0  0.05 0.07692307692307693 0  -0.05 0.1153846153846154 0  -0.025 0.1153846153846154 0  0 0.1153846153846154 0  0.02500000000000001 0.1153846153846154 0  0.05 0.1153846153846154 0  -0.05 0.1538461538461539 0  -0.025 0.1538461538461539 0  0 0.1538461538461539 0  0.02500000000000001 0.1538461538461539 0  0.05 0.1538461538461539 0  -0.05 0.1923076923076923 0  -0.025 0.1923076923076923 0  0 0.1923076923076923 0  0.02500000000000001 0.1923076923076923 0  0.05 0.1923076923076923 0  -0.05 0.2307692307692308 0  -0.025 0.2307692307692308 0  0 0.2307692307692308 0  0.02500000000000001 0.2307692307692308 0  0.05 0.2307692307692308 0  -0.05 0.2692307692307692 0  -0.025 0.2692307692307692 0  0 0.2692307692307692 0  0.02500000000000001 0.2692307692307692 0  0.05 0.2692307692307692 0  -0.05 0.3076923076923077 0  -0.025 0.3076923076923077 0  0 0.3076923076923077 0  0.02500000000000001 0.3076923076923077 0  0.05 0.3076923076923077 0  -0.05 0.3461538461538461 0  -0.025 0.3461538461538461 0  0 0.3461538461538461 0  0.02500000000000001 0.3461538461538461 0  0.05 0.3461538461538461 0  -0.05 0.3846153846153846 0  -0.025 0.3846153846153846 0  0 0.3846153846153846 0  0.02500000000000001 0.3846153846153846 0  0.05 0.3846153846153846 0  -0.05 0.4230769230769231 0  -0.025 0.4230769230769231 0  0 0.4230769230769231 0  0.02500000000000001 0.4230769230769231 0  0.05 0.4230769230769231 0  -0.05 0.4615384615384616 0  -0.025 0.4615384615384616 0  0 0.4615384615384616 0  0.02500000000000001 0.4615384615384616 0  0.05 0.4615384615384616 0  -0.05 0.5 0  -0.025 0.5 0  0 0.5 0  0.02500000000000001 0.5 0  0.05 0.5 0  -0.05 0.5384615384615384 0  -0.025 0.5384615384615384 0  0 0.5384615384615384 0  0.02500000000000001 0.5384615384615384 0  0.05 0.5384615384615384 0  -0.05 0.5769230769230769 0  -0.025 0.5769230769230769 0  0 0.5769230769230769 0  0.02500000000000001 0.5769230769230769 0  0.05 0.5769230769230769 0  -0.05 0.6153846153846154 0  -0.025 0.6153846153846154 0  0 0.6153846153846154 0  0.02500000000000001 0.6153846153846154 0  0.05 0.6153846153846154 0  -0.05 0.6538461538461539 0  -0.025 0.6538461538461539 0  0 0.6538461538461539 0  0.02500000000000001 0.6538461538461539 0  0.05 0.6538461538461539 0  -0.05 0.6923076923076923 0  -0.025 0.6923076923076923 0  0 0.6923076923076923 0  0.02500000000000001 0.6923076923076923 0  0.05 0.6923076923076923 0  -0.05 0.7307692307692307 0  -0.025 0.7307692307692307 0  0 0.7307692307692307 0  0.02500000000000001 0.7307692307692307 0  0.05 0.7307692307692307 0  -0.05 0.7692307692307693 0  -0.025 0.7692307692307693 0  0 0.7692307692307693 0  0.02500000000000001 0.7692307692307693 0  0.05 0.7692307692307693 0  -0.05 0.8076923076923077 0  -0.025 0.8076923076923077 0  0 0.8076923076923077 0  0.02500000000000001 0.8076923076923077 0  0.05 0.8076923076923077 0  -0.05 0.8461538461538461 0  -0.025 0.8461538461538461 0  0 0.8461538461538461 0  0.02500000000000001 0.8461538461538461 0  0.05 0.8461538461538461 0  -0.05 0.8846153846153846 0  -0.025 0.8846153846153846 0  0 0.8846153846153846 0  0.02500000000000001 0.8846153846153846 0  0.05 0.8846153846153846 0  -0.05 0.9230769230769231 0  -0.025 0.9230769230769231 0  0 0.9230769230769231 0  0.02500000000000001 0.9230769230769231 0  0.05 0.9230769230769231 0  -0.05 0.9615384615384616 0  -0.025 0.9615384615384616 0  0 0.9615384615384616 0  0.02500000000000001 0.9615384615384616 0  0.05 0.9615384615384616 0  -0.05 1 0  -0.025 1 0  0 1 0  0.02500000000000001 1 0  0.05 1 0  </DataArray>
</Points>
<Cells>
<DataArray  type="UInt32"  Name="connectivity"  format="ascii">0 1 6  0 5 6  1 2 7  1 6 7  2 3 8  2 7 8  3 4 9  3 8 9  5 6 11  5 10 11  6 7 12  6 11 12  7 8 13  7 12 13  8 9 14  8 13 14  10 11 16  10 15 16  11 12 17  11 16 17  12 13 18  12 17 18  13 14 19  13 18 19  15 16 21  15 20 21  16 17 22  16 21 22  17 18 23  17 22 23  18 19 24  18 23 24  20 21 26  20 25 26  21 22 27  21 26 27  22 23 28  22 27 28  23 24 29  23 28 29  25 26 31  25 30 31  26 27 32  26 31 32  27 28 33  27 32 33  28 29 34  28 33 34  30 31 36  30 35 36  31 32 37  31 36 37  32 33 38  32 37 38  33 34 39  33 38 39  35 36 41  35 40 41  36 37 42  36 41 42  37 38 43  37 42 43  38 39 44  38 43 44  40 41 46  40 45 46  41 42 47  41 46 47  42 43 48  42 47 48  43 44 49  43 48 49  45 46 51  45 50 51  46 47 52  46 51 52  47 48 53  47 52 53  48 49 54  48 53 54  50 51 56  50 55 56  51 52 57  51 56 57  52 53 58  52 57 58  53 54 59  53 58 59  55 56 61  55 60 61  56 57 62  56 61 62  57 58 63  57 62 63  58 59 64  58 63 64  60 61 66  60 65 66  61 62 67  61 66 67  62 63 68  62 67 68  63 64 69  63 68 69  65 66 71  65 70 71  66 67 72  66 71 72  67 68 73  67 72 73  68 69 74  68 73 74  70 71 76  70 75 76  71 72 77  71 76 77  72 73 78  72 77 78  73 74 79  73 78 79  75 76 81  75 80 81  76 77 82  76 81 82  77 78 83  77 82 83  78 79 84  78 83 84  80 81 86  80 85 86  81 82 87  81 86 87  82 83 88  82 87 88  83 84 89  83 88 89  85 86 91  85 90 91  86 87 92  86 91 92  87 88 93  87 92 93  88 89 94  88 93 94  90 91 96  90 95 96  91 92 97  91 96 97  92 93 98  92 97 98  93 94 99  93 98 99  95 96 101  95 100 101  96 97 102  96 101 102  97 98 103  97 102 103  98 99 104  98 103 104  100 101 106  100 105 106  101 102 107  101 106 107  102 103 108  102 107 108  103 104 109  103 108 109  105 106 111  105 110 111  106 107 112  106 111 112  107 108 113  107 112 113  108 109 114  108 113 114  110 111 116  110 115 116  111 112 117  111 116 117  112 113 118  112 117 118  113 114 119  113 118 119  115 116 121  115 120 121  116 117 122  116 121 122  117 118 123  117 122 123  118 119 124  118 123 124  120 121 126  120 125 126  121 122 127  121 126 127  122 123 128  122 127 128  123 124 129  123 128 129  125 126 131  125 130 131  126 127 132  126 131 132  127 128 133  127 132 133  128 129 134  128 133 134  </DataArray>
<DataArray  type="UInt32"  Name="offsets"  format="ascii">3 6 9 12 15 18 21 24 27 30 33 36 39 42 45 48 51 54 57 60 63 66 69 72 75 78 81 84 87 90 93 96 99 102 105 108 111 114 117 120 123 126 129 132 135 138 141 144 147 150 153 156 159 162 165 168 171 174 177 180 183 186 189 192 195 198 201 204 207 210 213 216 219 222 225 228 231 234 237 240 243 246 249 252 255 258 261 264 267 270 273 276 279 282 285 288 291 294 297 300 303 306 309 312 315 318 321 324 327 330 333 336 339 342 345 348 351 354 357 360 363 366 369 372 375 378 381 384 387 390 393 396 399 402 405 408 411 414 417 420 423 426 429 432 435 438 441 444 447 450 453 456 459 462 465 468 471 474 477 480 483 486 489 492 495 498 501 504 507 510 513 516 519 522 525 528 531 534 537 540 543 546 549 552 555 558 561 564 567 570 573 576 579 582 585 588 591 594 597 600 603 606 609 612 615 618 621 624 </DataArray>
<DataArray  type="UInt8"  Name="types"  format="ascii">5 5 5 5 5 5 5 5 5 5 5 5 5 5 5 5 5 5 5 5 5 5 5 5 5 5 5 5 5 5 5 5 5 5 5 5 5 5 5 5 5 5 5 5 5 5 5 5 5 5 5 5 5 5 5 5 5 5 5 5 5 5 5 5 5 5 5 5 5 5 5 5 5 5 5 5 5 5 5 5 5 5 5 5 5 5 5 5 5 5 5 5 5 5 5 5 5 5 5 5 5 5 5 5 5 5 5 5 5 5 5 5 5 5 5 5 5 5 5 5 5 5 5 5 5 5 5 5 5 5 5 5 5 5 5 5 5 5 5 5 5 5 5 5 5 5 5 5 5 5 5 5 5 5 5 5 5 5 5 5 5 5 5 5 5 5 5 5 5 5 5 5 5 5 5 5 5 5 5 5 5 5 5 5 5 5 5 5 5 5 5 5 5 5 5 5 5 5 5 5 5 5 5 5 5 5 5 5 </DataArray>
</Cells>
<PointData  Vectors="Displacement"> 
<DataArray  type="Float64"  Name="Displacement"  NumberOfComponents="3" format="ascii">-4.5630793649499435e-16 1.0694943383169177e-17 0.0000000000000000e+00  0.0000000000000000e+00 0.0000000000000000e+00 0.0000000000000000e+00  0.0000000000000000e+00 0.0000000000000000e+00 0.0000000000000000e+00  -6.0879018607889315e-17 1.9603552329366997e-18 0.0000000000000000e+00  1.8263705582366795e-16 -5.8810656988100990e-18 0.0000000000000000e+00  9.1520824288470728e-04 1.3535267177473473e-03 0.0000000000000000e+00  6.3518556811276215e-04 6.4836612183146185e-04 0.0000000000000000e+00  5.2925939304851292e-04 1.2525748838803401e-05 0.0000000000000000e+00  6.1322630050945730e-04 -6.1668388611776177e-04 0.0000000000000000e+00  8.9296569371748332e-04 -1.3364549142682923e-03 0.0000000000000000e+00  2.5338151293652230e-03 2.6160849419936522e-03 0.0000000000000000e+00  2.2758684125065683e-03 1.2952126465780543e-03 0.0000000000000000e+00  2.1862725625328228e-03 2.4644219170775272e-05 0.0000000000000000e+00  2.2684992619182993e-03 -1.2464203372937728e-03 0.0000000000000000e+00  2.5200751047470861e-03 -2.5707902946332769e-03 0.0000000000000000e+00  5.0794855868082677e-03 3.7908812358280770e-03 0.0000000000000000e+00  4.8429695687117313e-03 1.8891906646435063e-03 0.0000000000000000e+00  4.7621968127212807e-03 3.4991976079164432e-05 0.0000000000000000e+00  4.8377895515546443e-03 -1.8198175233568586e-03 0.0000000000000000e+00  5.0690755428799573e-03 -3.7221703315265678e-03 0.0000000000000000e+00  8.4806710063894120e-03 4.8720138700627091e-03 0.0000000000000000e+00  8.2625818664137061e-03 2.4359757911185790e-03 0.0000000000000000e+00  8.1870142057691546e-03 4.4799478345270243e-05 0.0000000000000000e+00  8.2552276073912471e-03 -2.3465985293991479e-03 0.0000000000000000e+00  8.4681089217025548e-03 -4.7823805458983059e-03 0.0000000000000000e+00  1.2664254183516951e-02 5.8674735499570909e-03 0.0000000000000000e+00  1.2463794410526936e-02 2.9408280924048263e-03 0.0000000000000000e+00  1.2394200435869619e-02 5.5177410533281134e-05 0.0000000000000000e+00  1.2457155446830171e-02 -2.8307496206029718e-03 0.0000000000000000e+00  1.2652545316966862e-02 -5.7585625915230745e-03 0.0000000000000000e+00  1.7569035563142776e-02 6.7829169924847948e-03 0.0000000000000000e+00  1.7383574199149151e-02 3.4051325596929772e-03 0.0000000000000000e+00  1.7319643507949133e-02 6.4843795682061785e-05 0.0000000000000000e+00  1.7377737962008068e-02 -3.2759080913021205e-03 0.0000000000000000e+00  1.7557856633793428e-02 -6.6541444741063244e-03 0.0000000000000000e+00  2.3133983509897149e-02 7.6272748445996947e-03 0.0000000000000000e+00  2.2963925527149470e-02 3.8332277279496891e-03 0.0000000000000000e+00  2.2904472229619006e-02 7.3770505431176574e-05 0.0000000000000000e+00  2.2957192019613999e-02 -3.6853604913493748e-03 0.0000000000000000e+00  2.3122426937264483e-02 -7.4792419545452347e-03 0.0000000000000000e+00  2.9311945264553753e-02 8.4042566293765133e-03 0.0000000000000000e+00  2.9154336870356064e-02 4.2278983776872746e-03 0.0000000000000000e+00  2.9099522473089806e-02 8.3175739104964476e-05 0.0000000000000000e+00  2.9148084661537399e-02 -4.0619941239461521e-03 0.0000000000000000e+00  2.9300409121732381e-02 -8.2392654898446674e-03 0.0000000000000000e+00  3.6050776022251443e-02 9.1205633322859279e-03 0.0000000000000000e+00  3.5906440759963999e-02 4.5906969731584618e-03 0.0000000000000000e+00  3.5856077744557853e-02 9.1330819517639874e-05 0.0000000000000000e+00  3.5900339892787049e-02 -4.4082394577151336e-03 0.0000000000000000e+00  3.6040223777187810e-02 -8.9388718671264116e-03 0.0000000000000000e+00  4.3311599013156642e-02 9.7787039621013705e-03 0.0000000000000000e+00  4.3179284972423689e-02 4.9240412160466724e-03 0.0000000000000000e+00  4.3133257653868301e-02 9.9104335933872820e-05 0.0000000000000000e+00  4.3174044619784253e-02 -4.7260364313247384e-03 0.0000000000000000e+00  4.3301987978529868e-02 -9.5813912776463346e-03 0.0000000000000000e+00  5.1049342843121993e-02 1.0378343460279212e-02 0.0000000000000000e+00  5.0928666728847188e-02 5.2277282116842579e-03 0.0000000000000000e+00  5.0886570866449786e-02 1.0628630588144462e-04 0.0000000000000000e+00  5.0923228482551264e-02 -5.0154734594107285e-03 0.0000000000000000e+00  5.1039678706262699e-02 -1.0166686616465982e-02 0.0000000000000000e+00  5.9218654619069583e-02 1.0922473484557113e-02 0.0000000000000000e+00  5.9110566844212377e-02 5.5032664272346302e-03 0.0000000000000000e+00  5.9072598589727097e-02 1.1281876084368157e-04 0.0000000000000000e+00  5.9105515224501748e-02 -5.2775157742576927e-03 0.0000000000000000e+00  5.9210058414898931e-02 -1.0697137792502918e-02 0.0000000000000000e+00  6.7782580187943697e-02 1.1409486843571121e-02 0.0000000000000000e+00  6.7685246090484472e-02 5.7499205080106218e-03 0.0000000000000000e+00  6.7651201018900556e-02 1.1925887017612202e-04 0.0000000000000000e+00  6.7680427387009814e-02 -5.5118783638204898e-03 0.0000000000000000e+00  6.7773866480536793e-02 -1.1172208755141640e-02 0.0000000000000000e+00  7.6690815869058682e-02 1.1840155676560134e-02 0.0000000000000000e+00  7.6606290136177299e-02 5.9683616649425578e-03 0.0000000000000000e+00  7.6576275897235771e-02 1.2469346543287201e-04 0.0000000000000000e+00  7.6601638970562130e-02 -5.7189369066378420e-03 0.0000000000000000e+00  7.6683240668375979e-02 -1.1591184863997604e-02 0.0000000000000000e+00  8.5906353661327636e-02 1.2215846004627131e-02 0.0000000000000000e+00  8.5832370658847704e-02 6.1591068706226063e-03 0.0000000000000000e+00  8.5806298002996870e-02 1.3021312871591966e-04 0.0000000000000000e+00  8.5828317427383061e-02 -5.8989873359962461e-03 0.0000000000000000e+00  8.5898951090738626e-02 -1.1956181508849055e-02 0.0000000000000000e+00  9.5382732283242233e-02 1.2536263959847815e-02 0.0000000000000000e+00  9.5320168158027407e-02 6.3226019488499766e-03 0.0000000000000000e+00  9.5297433862771563e-02 1.3511686149285019e-04 0.0000000000000000e+00  9.5315675428650076e-02 -6.0523065197721909e-03 0.0000000000000000e+00  9.5375313080594312e-02 -1.2265970381028904e-02 0.0000000000000000e+00  1.0507480127165085e-01 1.2805055065376372e-02 0.0000000000000000e+00  1.0502187283868984e-01 6.4617108037122771e-03 0.0000000000000000e+00  1.0500239936821970e-01 1.4002982765819736e-04 0.0000000000000000e+00  1.0501779327479122e-01 -6.1815159230949350e-03 0.0000000000000000e+00  1.0506766804334103e-01 -1.2524910111154575e-02 0.0000000000000000e+00  1.1494529993526509e-01 1.3031622714445379e-02 0.0000000000000000e+00  1.1489954555781098e-01 6.5791217333018587e-03 0.0000000000000000e+00  1.1488265235126985e-01 1.4468051391638143e-04 0.0000000000000000e+00  1.1489534508602722e-01 -6.2899798489477144e-03 0.0000000000000000e+00  1.1493784465813238e-01 -1.2742530509709049e-02 0.0000000000000000e+00  1.2496408948991584e-01 1.3225609510413357e-02 0.0000000000000000e+00  1.2492546926122032e-01 6.6800593241284579e-03 0.0000000000000000e+00  1.2491085928868752e-01 1.4897341425168159e-04 0.0000000000000000e+00  1.2492139834769267e-01 -6.3820256934667375e-03 0.0000000000000000e+00  1.2495705819143535e-01 -1.2927544930819771e-02 0.0000000000000000e+00  1.3511611236719101e-01 1.3393337919961119e-02 0.0000000000000000e+00  1.3508175937407951e-01 6.7669757800792561e-03 0.0000000000000000e+00  1.3506914983488616e-01 1.5388222832396365e-04 0.0000000000000000e+00  1.3507789401592671e-01 -6.4595837952150133e-03 0.0000000000000000e+00  1.3510857742546944e-01 -1.3086207909563212e-02 0.0000000000000000e+00  1.4537965754633275e-01 1.3536578121971884e-02 0.0000000000000000e+00  1.4535207709621004e-01 6.8405281645955015e-03 0.0000000000000000e+00  1.4534191045430209e-01 1.5802917696380934e-04 0.0000000000000000e+00  1.4534890315052570e-01 -6.5241601063154870e-03 0.0000000000000000e+00  1.4537396748515002e-01 -1.3220006057042658e-02 0.0000000000000000e+00  1.5574540068290818e-01 1.3654377757883624e-02 0.0000000000000000e+00  1.5572263549138166e-01 6.9007856032805492e-03 0.0000000000000000e+00  1.5571370587739963e-01 1.6239228729191221e-04 0.0000000000000000e+00  1.5571872899368641e-01 -6.5760504494434486e-03 0.0000000000000000e+00  1.5573852969630908e-01 -1.3328531916424094e-02 0.0000000000000000e+00  1.6618682502284188e-01 1.3741612262654327e-02 0.0000000000000000e+00  1.6617007690055152e-01 6.9471385345716615e-03 0.0000000000000000e+00  1.6616277227757326e-01 1.6704652315693711e-04 0.0000000000000000e+00  1.6616552007806290e-01 -6.6136260200957437e-03 0.0000000000000000e+00  1.6617936138958248e-01 -1.3408200272308327e-02 0.0000000000000000e+00  1.7667613839435817e-01 1.3797974749231074e-02 0.0000000000000000e+00  1.7666639760054051e-01 6.9783486001670815e-03 0.0000000000000000e+00  1.7666179402748838e-01 1.7075834125896758e-04 0.0000000000000000e+00  1.7666304749965303e-01 -6.6373542464520123e-03 0.0000000000000000e+00  1.7667067466090330e-01 -1.3457802581261740e-02 0.0000000000000000e+00  1.8719322799476029e-01 1.3826945263457213e-02 0.0000000000000000e+00  1.8718636976455144e-01 6.9956033252857128e-03 0.0000000000000000e+00  1.8718294796259902e-01 1.7366712178354125e-04 0.0000000000000000e+00  1.8718399492277121e-01 -6.6485991453802276e-03 0.0000000000000000e+00  1.8718872523700034e-01 -1.3478870592882476e-02 0.0000000000000000e+00  1.9770710326062760e-01 1.3834975247975620e-02 0.0000000000000000e+00  1.9770394585195136e-01 7.0039303431920280e-03 0.0000000000000000e+00  1.9770129585229437e-01 1.7685064182211159e-04 0.0000000000000000e+00  1.9770096637654150e-01 -6.6507054213527598e-03 0.0000000000000000e+00  1.9770157480343806e-01 -1.3481831424490437e-02 0.0000000000000000e+00  </DataArray> 
</PointData> 
</Piece>
</UnstructuredGrid>
</VTKFile>