<?xml version="1.0"?>
<VTKFile type="UnstructuredGrid"  version="0.1"  >
<UnstructuredGrid>
<Piece  NumberOfPoints="135" NumberOfCells="208">
<Points>
<DataArray  type="Float64"  NumberOfComponents="3"  format="ascii">-0.05 0 0  -0.025 0 0  0 0 0  0.02500000000000001 0 0  0.05 0 0  -0.05 0.03846153846153846 0  -0.025 0.03846153846153846 0  0 0.03846153846153846 0  0.02500000000000001 0.03846153846153846 0  0.05 0.03846153846153846 0  -0.05 0.07692307692307693 0  -0.025 0.07692307692307693 0  0 0.07692307692307693 0  0.02500000000000001 0.07692307692307693 0  0.05 0.07692307692307693 0  -0.05 0.1153846153846154 0  -0.025 0.1153846153846154 0  0 0.1153846153846154 0  0.02500000000000001 0.1153846153846154 0  0.05 0.1153846153846154 0  -0.05 0.1538461538461539 0  -0.025 0.1538461538461539 0  0 0.1538461538461539 0  0.02500000000000001 0.1538461538461539 0  0.05 0.1538461538461539 0  -0.05 0.1923076923076923 0  -0.025 0.1923076923076923 0  0 0.1923076923076923 0  0.02500000000000001 0.1923076923076923 0  0.05 0.1923076923076923 0  -0.05 0.2307692307692308 0  -0.025 0.2307692307692308 0  0 0.2307692307692308 0  0.02500000000000001 0.2307692307692308 0  0.05 0.2307692307692308 0  -0.05 0.2692307692307692 0  -0.025 0.2692307692307692 0  0 0.2692307692307692 0  0.02500000000000001 0.2692307692307692 0  0.05 0.2692307692307692 0  -0.05 0.3076923076923077 0  -0.025 0.3076923076923077 0  0 0.3076923076923077 0  0.02500000000000001 0.3076923076923077 0  0.05 0.3076923076923077 0  -0.05 0.3461538461538461 0  -0.025 0.3461538461538461 0  0 0.3461538461538461 0  0.02500000000000001 0.3461538461538461 0  0.05 0.3461538461538461 0  -0.05 0.3846153846153846 0  -0.025 0.3846153846153846 0  0 0.3846153846153846 0  0.02500000000000001 0.3846153846153846 0  0.05 0.3846153846153846 0  -0.05 0.4230769230769231 0  -0.025 0.4230769230769231 0  0 0.4230769230769231 0  0.02500000000000001 0.4230769230769231 0  0.05 0.4230769230769231 0  -0.05 0.4615384615384616 0  -0.025 0.4615384615384616 0  0 0.4615384615384616 0  0.02500000000000001 0.4615384615384616 0  0.05 0.4615384615384616 0  -0.05 0.5 0  -0.025 0.5 0  0 0.5 0  0.02500000000000001 0.5 0  0.05 0.5 0  -0.05 0.5384615384615384 0  -0.025 0.5384615384615384 0  0 0.5384615384615384 0  0.02500000000000001 0.5384615384615384 0  0.05 0.5384615384615384 0  -0.05 0.5769230769230769 0  -0.025 0.5769230769230769 0  0 0.5769230769230769 0  0.02500000000000001 0.5769230769230769 0  0.05 0.5769230769230769 0  -0.05 0.6153846153846154 0  -0.025 0.6153846153846154 0  0 0.6153846153846154 0  0.02500000000000001 0.6153846153846154 0  0.05 0.6153846153846154 0  -0.05 0.6538461538461539 0  -0.025 0.6538461538461539 0  0 0.6538461538461539 0  0.02500000000000001 0.6538461538461539 0  0.05 0.6538461538461539 0  -0.05 0.6923076923076923 0  -0.025 0.6923076923076923 0  0 0.6923076923076923 0  0.02500000000000001 0.6923076923076923 0  0.05 0.6923076923076923 0  -0.05 0.7307692307692307 0  -0.025 0.7307692307692307 0  0 0.7307692307692307 0  0.02500000000000001 0.7307692307692307 0  0.05 0.7307692307692307 0  -0.05 0.7692307692307693 0  -0.025 0.7692307692307693 0  0 0.7692307692307693 0  0.02500000000000001 0.7692307692307693 0  0.05 0.7692307692307693 0  -0.05 0.8076923076923077 0  -0.025 0.8076923076923077 0  0 0.8076923076923077 0  0.02500000000000001 0.8076923076923077 0  0.05 0.8076923076923077 0  -0.05 0.8461538461538461 0  -0.025 0.8461538461538461 0  0 0.8461538461538461 0  0.02500000000000001 0.8461538461538461 0  0.05 0.8461538461538461 0  -0.05 0.8846153846153846 0  -0.025 0.8846153846153846 0  0 0.8846153846153846 0  0.02500000000000001 0.8846153846153846 0  0.05 0.8846153846153846 0  -0.05 0.9230769230769231 0  -0.025 0.9230769230769231 0  0 0.9230769230769231 0  0.02500000000000001 0.9230769230769231 0  0.05 0.9230769230769231 0  -0.05 0.9615384615384616 0  -0.025 0.9615384615384616 0  0 0.9615384615384616 0  0.02500000000000001 0.9615384615384616 0  0.05 0.9615384615384616 0  -0.05 1 0  -0.025 1 0  0 1 0  0.02500000000000001 1 0  0.05 1 0  </DataArray>
</Points>
<Cells>
<DataArray  type="UInt32"  Name="connectivity"  format="ascii">0 1 6  0 5 6  1 2 7  1 6 7  2 3 8  2 7 8  3 4 9  3 8 9  5 6 11  5 10 11  6 7 12  6 11 12  7 8 13  7 12 13  8 9 14  8 13 14  10 11 16  10 15 16  11 12 17  11 16 17  12 13 18  12 17 18  13 14 19  13 18 19  15 16 21  15 20 21  16 17 22  16 21 22  17 18 23  17 22 23  18 19 24  18 23 24  20 21 26  20 25 26  21 22 27  21 26 27  22 23 28  22 27 28  23 24 29  23 28 29  25 26 31  25 30 31  26 27 32  26 31 32  27 28 33  27 32 33  28 29 34  28 33 34  30 31 36  30 35 36  31 32 37  31 36 37  32 33 38  32 37 38  33 34 39  33 38 39  35 36 41  35 40 41  36 37 42  36 41 42  37 38 43  37 42 43  38 39 44  38 43 44  40 41 46  40 45 46  41 42 47  41 46 47  42 43 48  42 47 48  43 44 49  43 48 49  45 46 51  45 50 51  46 47 52  46 51 52  47 48 53  47 52 53  48 49 54  48 53 54  50 51 56  50 55 56  51 52 57  51 56 57  52 53 58  52 57 58  53 54 59  53 58 59  55 56 61  55 60 61  56 57 62  56 61 62  57 58 63  57 62 63  58 59 64  58 63 64  60 61 66  60 65 66  61 62 67  61 66 67  62 63 68  62 67 68  63 64 69  63 68 69  65 66 71  65 70 71  66 67 72  66 71 72  67 68 73  67 72 73  68 69 74  68 73 74  70 71 76  70 75 76  71 72 77  71 76 77  72 73 78  72 77 78  73 74 79  73 78 79  75 76 81  75 80 81  76 77 82  76 81 82  77 78 83  77 82 83  78 79 84  78 83 84  80 81 86  80 85 86  81 82 87  81 86 87  82 83 88  82 87 88  83 84 89  83 88 89  85 86 91  85 90 91  86 87 92  86 91 92  87 88 93  87 92 93  88 89 94  88 93 94  90 91 96  90 95 96  91 92 97  91 96 97  92 93 98  92 97 98  93 94 99  93 98 99  95 96 101  95 100 101  96 97 102  96 101 102  97 98 103  97 102 103  98 99 104  98 103 104  100 101 106  100 105 106  101 102 107  101 106 107  102 103 108  102 107 108  103 104 109  103 108 109  105 106 111  105 110 111  106 107 112  106 111 112  107 108 113  107 112 113  108 109 114  108 113 114  110 111 116  110 115 116  111 112 117  111 116 117  112 113 118  112 117 118  113 114 119  113 118 119  115 116 121  115 120 121  116 117 122  116 121 122  117 118 123  117 122 123  118 119 124  118 123 124  120 121 126  120 125 126  121 122 127  121 126 127  122 123 128  122 127 128  123 124 129  123 128 129  125 126 131  125 130 131  126 127 132  126 131 132  127 128 133  127 132 133  128 129 134  128 133 134  </DataArray>
<DataArray  type="UInt32"  Name="offsets"  format="ascii">3 6 9 12 15 18 21 24 27 30 33 36 39 42 45 48 51 54 57 60 63 66 69 72 75 78 81 84 87 90 93 96 99 102 105 108 111 114 117 120 123 126 129 132 135 138 141 144 147 150 153 156 159 162 165 168 171 174 177 180 183 186 189 192 195 198 201 204 207 210 213 216 219 222 225 228 231 234 237 240 243 246 249 252 255 258 261 264 267 270 273 276 279 282 285 288 291 294 297 300 303 306 309 312 315 318 321 324 327 330 333 336 339 342 345 348 351 354 357 360 363 366 369 372 375 378 381 384 387 390 393 396 399 402 405 408 411 414 417 420 423 426 429 432 435 438 441 444 447 450 453 456 459 462 465 468 471 474 477 480 483 486 489 492 495 498 501 504 507 510 513 516 519 522 525 528 531 534 537 540 543 546 549 552 555 558 561 564 567 570 573 576 579 582 585 588 591 594 597 600 603 606 609 612 615 618 621 624 </DataArray>
<DataArray  type="UInt8"  Name="types"  format="ascii">5 5 5 5 5 5 5 5 5 5 5 5 5 5 5 5 5 5 5 5 5 5 5 5 5 5 5 5 5 5 5 5 5 5 5 5 5 5 5 5 5 5 5 5 5 5 5 5 5 5 5 5 5 5 5 5 5 5 5 5 5 5 5 5 5 5 5 5 5 5 5 5 5 5 5 5 5 5 5 5 5 5 5 5 5 5 5 5 5 5 5 5 5 5 5 5 5 5 5 5 5 5 5 5 5 5 5 5 5 5 5 5 5 5 5 5 5 5 5 5 5 5 5 5 5 5 5 5 5 5 5 5 5 5 5 5 5 5 5 5 5 5 5 5 5 5 5 5 5 5 5 5 5 5 5 5 5 5 5 5 5 5 5 5 5 5 5 5 5 5 5 5 5 5 5 5 5 5 5 5 5 5 5 5 5 5 5 5 5 5 5 5 5 5 5 5 5 5 5 5 5 5 5 5 5 5 5 5 </DataArray>
</Cells>
<PointData  Vectors="Displacement"> 
<DataArray  type="Float64"  Name="Displacement"  NumberOfComponents="3" format="ascii">-4.2509556444058694e-16 6.9114914995396242e-18 0.0000000000000000e+00  0.0000000000000000e+00 0.0000000000000000e+00 0.0000000000000000e+00  0.0000000000000000e+00 0.0000000000000000e+00 0.0000000000000000e+00  -6.6154899486473546e-17 1.6579865479221727e-18 0.0000000000000000e+00  1.9846469845942064e-16 -4.9739596437665184e-18 0.0000000000000000e+00  5.9192271629251157e-04 8.9088530488375388e-04 0.0000000000000000e+00  4.0523227655878173e-04 4.2928927550002775e-04 0.0000000000000000e+00  3.3527086339131150e-04 9.5930815812859207e-06 0.0000000000000000e+00  3.9163574969519578e-04 -4.0539950160119686e-04 0.0000000000000000e+00  5.7734669689074862e-04 -8.7695624551485825e-04 0.0000000000000000e+00  1.6502771718757022e-03 1.7330014352351403e-03 0.0000000000000000e+00  1.4765690553464066e-03 8.6182288255083530e-04 0.0000000000000000e+00  1.4168431744542914e-03 1.9510271442690595e-05 0.0000000000000000e+00  1.4722050594752640e-03 -8.2335731332152209e-04 0.0000000000000000e+00  1.6406275157795577e-03 -1.6957450801376251e-03 0.0000000000000000e+00  3.3308680282356376e-03 2.5276759101463746e-03 0.0000000000000000e+00  3.1691314722084472e-03 1.2641390495120594e-03 0.0000000000000000e+00  3.1140811932452422e-03 2.8918370763302716e-05 0.0000000000000000e+00  3.1646911745496389e-03 -1.2064147362111891e-03 0.0000000000000000e+00  3.3214341124876102e-03 -2.4700580864649544e-03 0.0000000000000000e+00  5.5944571336415169e-03 3.2692014847129042e-03 0.0000000000000000e+00  5.4438752053554314e-03 1.6398788537772284e-03 0.0000000000000000e+00  5.3925790482764182e-03 3.8474737641804427e-05 0.0000000000000000e+00  5.4397271820201638e-03 -1.5628234990394221e-03 0.0000000000000000e+00  5.5856913654841640e-03 -3.1921421798044676e-03 0.0000000000000000e+00  8.3998994784255307e-03 3.9568434756654799e-03 0.0000000000000000e+00  8.2614874837251117e-03 1.9876819180800610e-03 0.0000000000000000e+00  8.2143377273294019e-03 4.7986907530893992e-05 0.0000000000000000e+00  8.2572209355115077e-03 -1.8918913640110515e-03 0.0000000000000000e+00  8.3912416143965690e-03 -3.8605064163873036e-03 0.0000000000000000e+00  1.1711152047895379e-02 4.5889208993138853e-03 0.0000000000000000e+00  1.1583539628372698e-02 2.3083435444092755e-03 0.0000000000000000e+00  1.1539598935693613e-02 5.7530073487251494e-05 0.0000000000000000e+00  1.1578688362489152e-02 -2.1930870548227599e-03 0.0000000000000000e+00  1.1701547538811845e-02 -4.4739234874336424e-03 0.0000000000000000e+00  1.5475025293230952e-02 5.1617588434177417e-03 0.0000000000000000e+00  1.5360661112597354e-02 2.5997938128405574e-03 0.0000000000000000e+00  1.5321422134852040e-02 6.7059105134172170e-05 0.0000000000000000e+00  1.5356861804416439e-02 -2.4662574099636641e-03 0.0000000000000000e+00  1.5467278577843184e-02 -5.0285429222912898e-03 0.0000000000000000e+00  1.9651197471252109e-02 5.6779825583326629e-03 0.0000000000000000e+00  1.9547258381916590e-02 2.8630107518937031e-03 0.0000000000000000e+00  1.9511507392397386e-02 7.5610302777097302e-05 0.0000000000000000e+00  1.9543342570250612e-02 -2.7117030968504667e-03 0.0000000000000000e+00  1.9643000147377663e-02 -5.5268582701069897e-03 0.0000000000000000e+00  2.4191487563660054e-02 6.1404450155374208e-03 0.0000000000000000e+00  2.4099014515107414e-02 3.0995035668530727e-03 0.0000000000000000e+00  2.4067096481296270e-02 8.4122753118275471e-05 0.0000000000000000e+00  2.4095637624991242e-02 -2.9315417778702324e-03 0.0000000000000000e+00  2.4184383688683021e-02 -5.9726570192368501e-03 0.0000000000000000e+00  2.9056881995283963e-02 6.5521900604696834e-03 0.0000000000000000e+00  2.8973934068895781e-02 3.3107643178061446e-03 0.0000000000000000e+00  2.8945342520696481e-02 9.1943479654218739e-05 0.0000000000000000e+00  2.8970608827275098e-02 -3.1269436765386043e-03 0.0000000000000000e+00  2.9049651066847686e-02 -6.3681491735910565e-03 0.0000000000000000e+00  3.4211344947352736e-02 6.9221016940266399e-03 0.0000000000000000e+00  3.4136481352824058e-02 3.5006772032034734e-03 0.0000000000000000e+00  3.4110581766226479e-02 9.9704484910144407e-05 0.0000000000000000e+00  3.4132966038242299e-02 -3.3012081094911188e-03 0.0000000000000000e+00  3.4203813737488466e-02 -6.7227756872182574e-03 0.0000000000000000e+00  3.9625812384949936e-02 7.2525541839581452e-03 0.0000000000000000e+00  3.9560330891924934e-02 3.6693886997327804e-03 0.0000000000000000e+00  3.9537922111694657e-02 1.0721938131697762e-04 0.0000000000000000e+00  3.9557431751090354e-02 -3.4553755493751523e-03 0.0000000000000000e+00  3.9619527889412962e-02 -7.0385580831583850e-03 0.0000000000000000e+00  4.5278107049073708e-02 7.5437697779781026e-03 0.0000000000000000e+00  4.5219989983644369e-02 3.8182524422276784e-03 0.0000000000000000e+00  4.5199975310478507e-02 1.1408034223318034e-04 0.0000000000000000e+00  4.5216830920425409e-02 -3.5899619762375721e-03 0.0000000000000000e+00  4.5271311502827372e-02 -7.3157909497882931e-03 0.0000000000000000e+00  5.1131797652223442e-02 7.7927042826672899e-03 0.0000000000000000e+00  5.1084254789542427e-02 3.9452028496201018e-03 0.0000000000000000e+00  5.1068077454444985e-02 1.2070730926146557e-04 0.0000000000000000e+00  5.1082140908472524e-02 -3.7042861707019203e-03 0.0000000000000000e+00  5.1127160298333182e-02 -7.5520712425230655e-03 0.0000000000000000e+00  5.7160523357338157e-02 7.9958388650071786e-03 0.0000000000000000e+00  5.7121826972209827e-02 4.0491638044688966e-03 0.0000000000000000e+00  5.7108559055260966e-02 1.2624073233747762e-04 0.0000000000000000e+00  5.7119638901495962e-02 -3.7965905057050363e-03 0.0000000000000000e+00  5.7155729863946465e-02 -7.7432330954714350e-03 0.0000000000000000e+00  6.3321382355049402e-02 8.1512271169968953e-03 0.0000000000000000e+00  6.3292899621189724e-02 4.1298566455403706e-03 0.0000000000000000e+00  6.3282935938263229e-02 1.3158751142528627e-04 0.0000000000000000e+00  6.3291197361846116e-02 -3.8668887418520843e-03 0.0000000000000000e+00  6.3317715092263208e-02 -7.8883405620059355e-03 0.0000000000000000e+00  6.9576375291505149e-02 8.2586375017146881e-03 0.0000000000000000e+00  6.9557159194119408e-02 4.1870876205962332e-03 0.0000000000000000e+00  6.9550381366675754e-02 1.3610033162202230e-04 0.0000000000000000e+00  6.9555807400917199e-02 -3.9150681494450786e-03 0.0000000000000000e+00  6.9573210326305937e-02 -7.9864065862899104e-03 0.0000000000000000e+00  7.5888678096765180e-02 8.3256745212577678e-03 0.0000000000000000e+00  7.5876299250535739e-02 4.2246705570933669e-03 0.0000000000000000e+00  7.5871713590036804e-02 1.4022239550027198e-04 0.0000000000000000e+00  7.5874922642977682e-02 -3.9442194826542175e-03 0.0000000000000000e+00  7.5885379985280541e-02 -8.0451270028136790e-03 0.0000000000000000e+00  8.2225882044321880e-02 8.3588088943617952e-03 0.0000000000000000e+00  8.2220838895521176e-02 4.2447844203316312e-03 0.0000000000000000e+00  8.2219068736482367e-02 1.4390438232398295e-04 0.0000000000000000e+00  8.2220353729461709e-02 -3.9573211533563985e-03 0.0000000000000000e+00  8.2224048303784603e-02 -8.0711210175461717e-03 0.0000000000000000e+00  8.8571261765378495e-02 8.3664849326899292e-03 0.0000000000000000e+00  8.8569399143409874e-02 4.2522249053843081e-03 0.0000000000000000e+00  8.8568513678648694e-02 1.4684048026308261e-04 0.0000000000000000e+00  8.8568489412741633e-02 -3.9581938760648713e-03 0.0000000000000000e+00  8.8568589780585502e-02 -8.0716013526703923e-03 0.0000000000000000e+00  9.4899691521464033e-02 8.3558659312989326e-03 0.0000000000000000e+00  9.4901433365360194e-02 4.2507696792407710e-03 0.0000000000000000e+00  9.4901787565177850e-02 1.4973998402509998e-04 0.0000000000000000e+00  9.4900933958906988e-02 -3.9514763055424453e-03 0.0000000000000000e+00  9.4897976262403649e-02 -8.0559500778493529e-03 0.0000000000000000e+00  1.0120749808162974e-01 8.3383059238642254e-03 0.0000000000000000e+00  1.0120888984509564e-01 4.2453703660666293e-03 0.0000000000000000e+00  1.0120917932330430e-01 1.5203273682960067e-04 0.0000000000000000e+00  1.0120804598672675e-01 -3.9415078149469748e-03 0.0000000000000000e+00  1.0120509271301316e-01 -8.0339709309156185e-03 0.0000000000000000e+00  1.0749218613117539e-01 8.3250003813532449e-03 0.0000000000000000e+00  1.0749239274310694e-01 4.2410407539576599e-03 0.0000000000000000e+00  1.0749289255400145e-01 1.5422332045079846e-04 0.0000000000000000e+00  1.0749250786405669e-01 -3.9330249733629894e-03 0.0000000000000000e+00  1.0749082686948941e-01 -8.0164496301364432e-03 0.0000000000000000e+00  1.1376633432695511e-01 8.3200875809272944e-03 0.0000000000000000e+00  1.1376579157950893e-01 4.2389343274849686e-03 0.0000000000000000e+00  1.1376602836909526e-01 1.5598706226763818e-04 0.0000000000000000e+00  1.1376515221716049e-01 -3.9270543465881377e-03 0.0000000000000000e+00  1.1376399019951999e-01 -8.0066849780416217e-03 0.0000000000000000e+00  1.2004355635061915e-01 8.3225633479752665e-03 0.0000000000000000e+00  1.2004036605353689e-01 4.2403234342604044e-03 0.0000000000000000e+00  1.2003956540776341e-01 1.5814922295349262e-04 0.0000000000000000e+00  1.2003942877358194e-01 -3.9239185186574913e-03 0.0000000000000000e+00  1.2004132672288023e-01 -8.0051570339676227e-03 0.0000000000000000e+00  1.2632148948504288e-01 8.3260519054323655e-03 0.0000000000000000e+00  1.2632057197516214e-01 4.2439417322919643e-03 0.0000000000000000e+00  1.2632013126426966e-01 1.6054715970805346e-04 0.0000000000000000e+00  1.2632051224067695e-01 -3.9227521971323199e-03 0.0000000000000000e+00  1.2632100210491587e-01 -8.0061660223693272e-03 0.0000000000000000e+00  </DataArray> 
</PointData> 
</Piece>
</UnstructuredGrid>
</VTKFile>