<?xml version="1.0"?>
<VTKFile type="UnstructuredGrid"  version="0.1"  >
<UnstructuredGrid>
<Piece  NumberOfPoints="135" NumberOfCells="208">
<Points>
<DataArray  type="Float64"  NumberOfComponents="3"  format="ascii">-0.05 0 0  -0.025 0 0  0 0 0  0.02500000000000001 0 0  0.05 0 0  -0.05 0.03846153846153846 0  -0.025 0.03846153846153846 0  0 0.03846153846153846 0  0.02500000000000001 0.03846153846153846 0  0.05 0.03846153846153846 0  -0.05 0.07692307692307693 0  -0.025 0.07692307692307693 0  0 0.07692307692307693 0  0.02500000000000001 0.07692307692307693 0  0.05 0.07692307692307693 0  -0.05 0.1153846153846154 0  -0.025 0.1153846153846154 0  0 0.1153846153846154 0  0.02500000000000001 0.1153846153846154 0  0.05 0.1153846153846154 0  -0.05 0.1538461538461539 0  -0.025 0.1538461538461539 0  0 0.1538461538461539 0  0.02500000000000001 0.1538461538461539 0  0.05 0.1538461538461539 0  -0.05 0.1923076923076923 0  -0.025 0.1923076923076923 0  0 0.1923076923076923 0  0.02500000000000001 0.1923076923076923 0  0.05 0.1923076923076923 0  -0.05 0.2307692307692308 0  -0.025 0.2307692307692308 0  0 0.2307692307692308 0  0.02500000000000001 0.2307692307692308 0  0.05 0.2307692307692308 0  -0.05 0.2692307692307692 0  -0.025 0.2692307692307692 0  0 0.2692307692307692 0  0.02500000000000001 0.2692307692307692 0  0.05 0.2692307692307692 0  -0.05 0.3076923076923077 0  -0.025 0.3076923076923077 0  0 0.3076923076923077 0  0.02500000000000001 0.3076923076923077 0  0.05 0.3076923076923077 0  -0.05 0.3461538461538461 0  -0.025 0.3461538461538461 0  0 0.3461538461538461 0  0.02500000000000001 0.3461538461538461 0  0.05 0.3461538461538461 0  -0.05 0.3846153846153846 0  -0.025 0.3846153846153846 0  0 0.3846153846153846 0  0.02500000000000001 0.3846153846153846 0  0.05 0.3846153846153846 0  -0.05 0.4230769230769231 0  -0.025 0.4230769230769231 0  0 0.4230769230769231 0  0.02500000000000001 0.4230769230769231 0  0.05 0.4230769230769231 0  -0.05 0.4615384615384616 0  -0.025 0.4615384615384616 0  0 0.4615384615384616 0  0.02500000000000001 0.4615384615384616 0  0.05 0.4615384615384616 0  -0.05 0.5 0  -0.025 0.5 0  0 0.5 0  0.02500000000000001 0.5 0  0.05 0.5 0  -0.05 0.5384615384615384 0  -0.025 0.5384615384615384 0  0 0.5384615384615384 0  0.02500000000000001 0.5384615384615384 0  0.05 0.5384615384615384 0  -0.05 0.5769230769230769 0  -0.025 0.5769230769230769 0  0 0.5769230769230769 0  0.02500000000000001 0.5769230769230769 0  0.05 0.5769230769230769 0  -0.05 0.6153846153846154 0  -0.025 0.6153846153846154 0  0 0.6153846153846154 0  0.02500000000000001 0.6153846153846154 0  0.05 0.6153846153846154 0  -0.05 0.6538461538461539 0  -0.025 0.6538461538461539 0  0 0.6538461538461539 0  0.02500000000000001 0.6538461538461539 0  0.05 0.6538461538461539 0  -0.05 0.6923076923076923 0  -0.025 0.6923076923076923 0  0 0.6923076923076923 0  0.02500000000000001 0.6923076923076923 0  0.05 0.6923076923076923 0  -0.05 0.7307692307692307 0  -0.025 0.7307692307692307 0  0 0.7307692307692307 0  0.02500000000000001 0.7307692307692307 0  0.05 0.7307692307692307 0  -0.05 0.7692307692307693 0  -0.025 0.7692307692307693 0  0 0.7692307692307693 0  0.02500000000000001 0.7692307692307693 0  0.05 0.7692307692307693 0  -0.05 0.8076923076923077 0  -0.025 0.8076923076923077 0  0 0.8076923076923077 0  0.02500000000000001 0.8076923076923077 0  0.05 0.8076923076923077 0  -0.05 0.8461538461538461 0  -0.025 0.8461538461538461 0  0 0.8461538461538461 0  0.02500000000000001 0.8461538461538461 0  0.05 0.8461538461538461 0  -0.05 0.8846153846153846 0  -0.025 0.8846153846153846 0  0 0.8846153846153846 0  0.02500000000000001 0.8846153846153846 0  0.05 0.8846153846153846 0  -0.05 0.9230769230769231 0  -0.025 0.9230769230769231 0  0 0.9230769230769231 0  0.02500000000000001 0.9230769230769231 0  0.05 0.9230769230769231 0  -0.05 0.9615384615384616 0  -0.025 0.9615384615384616 0  0 0.9615384615384616 0  0.02500000000000001 0.9615384615384616 0  0.05 0.9615384615384616 0  -0.05 1 0  -0.025 1 0  0 1 0  0.02500000000000001 1 0  0.05 1 0  </DataArray>
</Points>
<Cells>
<DataArray  type="UInt32"  Name="connectivity"  format="ascii">0 1 6  0 5 6  1 2 7  1 6 7  2 3 8  2 7 8  3 4 9  3 8 9  5 6 11  5 10 11  6 7 12  6 11 12  7 8 13  7 12 13  8 9 14  8 13 14  10 11 16  10 15 16  11 12 17  11 16 17  12 13 18  12 17 18  13 14 19  13 18 19  15 16 21  15 20 21  16 17 22  16 21 22  17 18 23  17 22 23  18 19 24  18 23 24  20 21 26  20 25 26  21 22 27  21 26 27  22 23 28  22 27 28  23 24 29  23 28 29  25 26 31  25 30 31  26 27 32  26 31 32  27 28 33  27 32 33  28 29 34  28 33 34  30 31 36  30 35 36  31 32 37  31 36 37  32 33 38  32 37 38  33 34 39  33 38 39  35 36 41  35 40 41  36 37 42  36 41 42  37 38 43  37 42 43  38 39 44  38 43 44  40 41 46  40 45 46  41 42 47  41 46 47  42 43 48  42 47 48  43 44 49  43 48 49  45 46 51  45 50 51  46 47 52  46 51 52  47 48 53  47 52 53  48 49 54  48 53 54  50 51 56  50 55 56  51 52 57  51 56 57  52 53 58  52 57 58  53 54 59  53 58 59  55 56 61  55 60 61  56 57 62  56 61 62  57 58 63  57 62 63  58 59 64  58 63 64  60 61 66  60 65 66  61 62 67  61 66 67  62 63 68  62 67 68  63 64 69  63 68 69  65 66 71  65 70 71  66 67 72  66 71 72  67 68 73  67 72 73  68 69 74  68 73 74  70 71 76  70 75 76  71 72 77  71 76 77  72 73 78  72 77 78  73 74 79  73 78 79  75 76 81  75 80 81  76 77 82  76 81 82  77 78 83  77 82 83  78 79 84  78 83 84  80 81 86  80 85 86  81 82 87  81 86 87  82 83 88  82 87 88  83 84 89  83 88 89  85 86 91  85 90 91  86 87 92  86 91 92  87 88 93  87 92 93  88 89 94  88 93 94  90 91 96  90 95 96  91 92 97  91 96 97  92 93 98  92 97 98  93 94 99  93 98 99  95 96 101  95 100 101  96 97 102  96 101 102  97 98 103  97 102 103  98 99 104  98 103 104  100 101 106  100 105 106  101 102 107  101 106 107  102 103 108  102 107 108  103 104 109  103 108 109  105 106 111  105 110 111  106 107 112  106 111 112  107 108 113  107 112 113  108 109 114  108 113 114  110 111 116  110 115 116  111 112 117  111 116 117  112 113 118  112 117 118  113 114 119  113 118 119  115 116 121  115 120 121  116 117 122  116 121 122  117 118 123  117 122 123  118 119 124  118 123 124  120 121 126  120 125 126  121 122 127  121 126 127  122 123 128  122 127 128  123 124 129  123 128 129  125 126 131  125 130 131  126 127 132  126 131 132  127 128 133  127 132 133  128 129 134  128 133 134  </DataArray>
<DataArray  type="UInt32"  Name="offsets"  format="ascii">3 6 9 12 15 18 21 24 27 30 33 36 39 42 45 48 51 54 57 60 63 66 69 72 75 78 81 84 87 90 93 96 99 102 105 108 111 114 117 120 123 126 129 132 135 138 141 144 147 150 153 156 159 162 165 168 171 174 177 180 183 186 189 192 195 198 201 204 207 210 213 216 219 222 225 228 231 234 237 240 243 246 249 252 255 258 261 264 267 270 273 276 279 282 285 288 291 294 297 300 303 306 309 312 315 318 321 324 327 330 333 336 339 342 345 348 351 354 357 360 363 366 369 372 375 378 381 384 387 390 393 396 399 402 405 408 411 414 417 420 423 426 429 432 435 438 441 444 447 450 453 456 459 462 465 468 471 474 477 480 483 486 489 492 495 498 501 504 507 510 513 516 519 522 525 528 531 534 537 540 543 546 549 552 555 558 561 564 567 570 573 576 579 582 585 588 591 594 597 600 603 606 609 612 615 618 621 624 </DataArray>
<DataArray  type="UInt8"  Name="types"  format="ascii">5 5 5 5 5 5 5 5 5 5 5 5 5 5 5 5 5 5 5 5 5 5 5 5 5 5 5 5 5 5 5 5 5 5 5 5 5 5 5 5 5 5 5 5 5 5 5 5 5 5 5 5 5 5 5 5 5 5 5 5 5 5 5 5 5 5 5 5 5 5 5 5 5 5 5 5 5 5 5 5 5 5 5 5 5 5 5 5 5 5 5 5 5 5 5 5 5 5 5 5 5 5 5 5 5 5 5 5 5 5 5 5 5 5 5 5 5 5 5 5 5 5 5 5 5 5 5 5 5 5 5 5 5 5 5 5 5 5 5 5 5 5 5 5 5 5 5 5 5 5 5 5 5 5 5 5 5 5 5 5 5 5 5 5 5 5 5 5 5 5 5 5 5 5 5 5 5 5 5 5 5 5 5 5 5 5 5 5 5 5 5 5 5 5 5 5 5 5 5 5 5 5 5 5 5 5 5 5 </DataArray>
</Cells>
<PointData  Vectors="Displacement"> 
<DataArray  type="Float64"  Name="Displacement"  NumberOfComponents="3" format="ascii">-4.7792734080061152e-16 7.5153974707230189e-18 0.0000000000000000e+00  0.0000000000000000e+00 0.0000000000000000e+00 0.0000000000000000e+00  0.0000000000000000e+00 0.0000000000000000e+00 0.0000000000000000e+00  -5.6809597973444244e-17 1.0036341474601816e-18 0.0000000000000000e+00  1.7042879392033276e-16 -3.0109024423805451e-18 0.0000000000000000e+00  4.4937340308846981e-04 6.0438862290252923e-04 0.0000000000000000e+00  3.2934478385302299e-04 2.7672758604958429e-04 0.0000000000000000e+00  2.8588302996646612e-04 -3.5156998756819303e-06 0.0000000000000000e+00  3.2458130636862849e-04 -2.8159985628412927e-04 0.0000000000000000e+00  4.5046087488677215e-04 -6.1812681661443426e-04 0.0000000000000000e+00  1.2005704798463024e-03 1.1277245981737151e-03 0.0000000000000000e+00  1.0975850906802325e-03 5.4070730452746821e-04 0.0000000000000000e+00  1.0644429838356994e-03 -8.4611437134710425e-06 0.0000000000000000e+00  1.1018556685795510e-03 -5.5939372313841096e-04 0.0000000000000000e+00  1.2090551045588300e-03 -1.1488143247720816e-03 0.0000000000000000e+00  2.3304843760474478e-03 1.5813923301141715e-03 0.0000000000000000e+00  2.2421349336735250e-03 7.6591831545443512e-04 0.0000000000000000e+00  2.2142208822331180e-03 -1.4267498521323295e-05 0.0000000000000000e+00  2.2463801852966505e-03 -7.9553683052682560e-04 0.0000000000000000e+00  2.3377229344755598e-03 -1.6110485279545277e-03 0.0000000000000000e+00  3.7766166879643131e-03 1.9672885940841714e-03 0.0000000000000000e+00  3.7006869520419569e-03 9.5947491471313356e-04 0.0000000000000000e+00  3.6763806076297889e-03 -1.9280565770474918e-05 0.0000000000000000e+00  3.7036130776827137e-03 -9.9892748974393804e-04 0.0000000000000000e+00  3.7827351033612013e-03 -2.0070768909782053e-03 0.0000000000000000e+00  5.4904095012226232e-03 2.2981617530348970e-03 0.0000000000000000e+00  5.4261579733172671e-03 1.1244271168667341e-03 0.0000000000000000e+00  5.4065334049206628e-03 -2.3836652535676443e-05 0.0000000000000000e+00  5.4306675102977096e-03 -1.1729772637247536e-03 0.0000000000000000e+00  5.4980256998281955e-03 -2.3468247862879787e-03 0.0000000000000000e+00  7.4384580796963565e-03 2.5825074108717888e-03 0.0000000000000000e+00  7.3813760461626781e-03 1.2663716957370399e-03 0.0000000000000000e+00  7.3633259271286061e-03 -2.8468458562309272e-05 0.0000000000000000e+00  7.3838633865918497e-03 -1.3232577828719695e-03 0.0000000000000000e+00  7.4427987301667244e-03 -2.6379222103067035e-03 0.0000000000000000e+00  9.5805699495468671e-03 2.8269739681401002e-03 0.0000000000000000e+00  9.5327176180927432e-03 1.3887802389127596e-03 0.0000000000000000e+00  9.5177171887556328e-03 -3.1534235577310744e-05 0.0000000000000000e+00  9.5348579843331626e-03 -1.4527845901856715e-03 0.0000000000000000e+00  9.5848921752849890e-03 -2.8911429760870608e-03 0.0000000000000000e+00  1.1899206851309688e-02 3.0394755203528045e-03 0.0000000000000000e+00  1.1856110323136075e-02 1.4946396037380384e-03 0.0000000000000000e+00  1.1842917406624123e-02 -3.4698808208823494e-05 0.0000000000000000e+00  1.1858445754994618e-02 -1.5644318956921537e-03 0.0000000000000000e+00  1.1902533499272182e-02 -3.1091610033332478e-03 0.0000000000000000e+00  1.4364521438379263e-02 3.2248134811458740e-03 0.0000000000000000e+00  1.4327581497086427e-02 1.5870232778027790e-03 0.0000000000000000e+00  1.4316210478845010e-02 -3.7383439437337583e-05 0.0000000000000000e+00  1.4329334372882214e-02 -1.6623137484524815e-03 0.0000000000000000e+00  1.4367656081968227e-02 -3.2993566546629326e-03 0.0000000000000000e+00  1.6964027447698007e-02 3.3867455925711220e-03 0.0000000000000000e+00  1.6931557546074175e-02 1.6675896328458056e-03 0.0000000000000000e+00  1.6921788172624217e-02 -3.9010666139082094e-05 0.0000000000000000e+00  1.6933177020968301e-02 -1.7462692947525082e-03 0.0000000000000000e+00  1.6966157739162307e-02 -3.4659008078004381e-03 0.0000000000000000e+00  1.9679421239617849e-02 3.5271146533958626e-03 0.0000000000000000e+00  1.9651339491688912e-02 1.7370164975317143e-03 0.0000000000000000e+00  1.9643360171288333e-02 -4.1092830178037031e-05 0.0000000000000000e+00  1.9653580561984248e-02 -1.8193073496088833e-03 0.0000000000000000e+00  1.9682572861164538e-02 -3.6089192049831176e-03 0.0000000000000000e+00  2.2494438706599916e-02 3.6441616377857946e-03 0.0000000000000000e+00  2.2472728424515306e-02 1.7939147792016248e-03 0.0000000000000000e+00  2.2466733517376009e-02 -4.3065343078265736e-05 0.0000000000000000e+00  2.2474859095173702e-02 -1.8801604720823806e-03 0.0000000000000000e+00  2.2497846721485242e-02 -3.7294651740130210e-03 0.0000000000000000e+00  2.5394562524969990e-02 3.7354697126127218e-03 0.0000000000000000e+00  2.5375705326539787e-02 1.8396838640201199e-03 0.0000000000000000e+00  2.5369955921622576e-02 -4.4942320572186659e-05 0.0000000000000000e+00  2.5376590665797390e-02 -1.9293853417205529e-03 0.0000000000000000e+00  2.5395880481640237e-02 -3.8243228737918000e-03 0.0000000000000000e+00  2.8346811352152897e-02 3.8052503045413488e-03 0.0000000000000000e+00  2.8333110798538504e-02 1.8753436465165287e-03 0.0000000000000000e+00  2.8329360831015952e-02 -4.6598950015466492e-05 0.0000000000000000e+00  2.8334973887476560e-02 -1.9691130587650928e-03 0.0000000000000000e+00  2.8349890785529110e-02 -3.8986681184479768e-03 0.0000000000000000e+00  3.1345767807318257e-02 3.8616851009838742e-03 0.0000000000000000e+00  3.1332416329637111e-02 1.9048441420735779e-03 0.0000000000000000e+00  3.1328675049608054e-02 -4.8183927492331739e-05 0.0000000000000000e+00  3.1333664076256304e-02 -2.0014194536454410e-03 0.0000000000000000e+00  3.1346733889943808e-02 -3.9578919821250357e-03 0.0000000000000000e+00  3.4375062239275445e-02 3.9133970272238654e-03 0.0000000000000000e+00  3.4363180625394812e-02 1.9314059938618418e-03 0.0000000000000000e+00  3.4360634277390376e-02 -4.9810066902761941e-05 0.0000000000000000e+00  3.4365535032501754e-02 -2.0308205515455293e-03 0.0000000000000000e+00  3.4377870983466098e-02 -4.0116956049682483e-03 0.0000000000000000e+00  3.7445056410408843e-02 3.9662002084801026e-03 0.0000000000000000e+00  3.7433272593200846e-02 1.9565449313757948e-03 0.0000000000000000e+00  3.7430351594558813e-02 -5.1171680308341591e-05 0.0000000000000000e+00  3.7434334235952889e-02 -2.0582812674548941e-03 0.0000000000000000e+00  3.7445844373579507e-02 -4.0657560593107761e-03 0.0000000000000000e+00  4.0557922473034254e-02 4.0183004091812243e-03 0.0000000000000000e+00  4.0545092646295078e-02 1.9828863102643751e-03 0.0000000000000000e+00  4.0541339821125497e-02 -5.1514845016323111e-05 0.0000000000000000e+00  4.0545248155187244e-02 -2.0852922890813607e-03 0.0000000000000000e+00  4.0557541039074302e-02 -4.1194935974303440e-03 0.0000000000000000e+00  4.3706792938319951e-02 4.0698880079658543e-03 0.0000000000000000e+00  4.3696180670756431e-02 2.0079451954996318e-03 0.0000000000000000e+00  4.3693840368008392e-02 -5.1947652041989882e-05 0.0000000000000000e+00  4.3697879750458288e-02 -2.1117801872044123e-03 0.0000000000000000e+00  4.3708925563923549e-02 -4.1728945098256226e-03 0.0000000000000000e+00  4.6903084159570937e-02 4.1186836634243577e-03 0.0000000000000000e+00  4.6891568442327662e-02 2.0316235349520655e-03 0.0000000000000000e+00  4.6888479079393745e-02 -5.2411441204181740e-05 0.0000000000000000e+00  4.6891995177701359e-02 -2.1362509408263106e-03 0.0000000000000000e+00  4.6902784648918922e-02 -4.2214023156291270e-03 0.0000000000000000e+00  5.0130799863874663e-02 4.1625890675793219e-03 0.0000000000000000e+00  5.0121641069731070e-02 2.0532552985631581e-03 0.0000000000000000e+00  5.0119477465284799e-02 -5.2146392872679910e-05 0.0000000000000000e+00  5.0122106293226540e-02 -2.1575498085650460e-03 0.0000000000000000e+00  5.0130774124819623e-02 -4.2655914603051169e-03 0.0000000000000000e+00  5.3397465327504195e-02 4.2010233682287660e-03 0.0000000000000000e+00  5.3389493368438769e-02 2.0714899132072526e-03 0.0000000000000000e+00  5.3387552067913784e-02 -5.1505859010139383e-05 0.0000000000000000e+00  5.3389797655489249e-02 -2.1741440304089560e-03 0.0000000000000000e+00  5.3396896679993762e-02 -4.3021392063783527e-03 0.0000000000000000e+00  5.6689505851137890e-02 4.2274501952233980e-03 0.0000000000000000e+00  5.6683398291567211e-02 2.0850988697854360e-03 0.0000000000000000e+00  5.6681948843920901e-02 -5.0837284262570366e-05 0.0000000000000000e+00  5.6683524610597127e-02 -2.1860147069366035e-03 0.0000000000000000e+00  5.6688440928487266e-02 -4.3252254285292705e-03 0.0000000000000000e+00  5.9993831427653965e-02 4.2434560672002762e-03 0.0000000000000000e+00  5.9990240026983437e-02 2.0944944831302803e-03 0.0000000000000000e+00  5.9988977334626187e-02 -4.9412303548189779e-05 0.0000000000000000e+00  5.9988943430168570e-02 -2.1924564634744495e-03 0.0000000000000000e+00  5.9991356096152748e-02 -4.3391758368085441e-03 0.0000000000000000e+00  6.3307944673332658e-02 4.2520984451042913e-03 0.0000000000000000e+00  6.3303596375521895e-02 2.0999426192439817e-03 0.0000000000000000e+00  6.3302188446204305e-02 -4.7847571304246713e-05 0.0000000000000000e+00  6.3302706674131834e-02 -2.1944446674302970e-03 0.0000000000000000e+00  6.3305680054500713e-02 -4.3438116996791769e-03 0.0000000000000000e+00  6.6615654535761668e-02 4.2547784057543935e-03 0.0000000000000000e+00  6.6613915950172908e-02 2.1039533236000877e-03 0.0000000000000000e+00  6.6612575163856325e-02 -4.5599171917002601e-05 0.0000000000000000e+00  6.6612770144272124e-02 -2.1943354874847582e-03 0.0000000000000000e+00  6.6613205527132291e-02 -4.3441650922586422e-03 0.0000000000000000e+00  </DataArray> 
</PointData> 
</Piece>
</UnstructuredGrid>
</VTKFile>