<?xml version="1.0"?>
<VTKFile type="UnstructuredGrid"  version="0.1"  >
<UnstructuredGrid>
<Piece  NumberOfPoints="135" NumberOfCells="208">
<Points>
<DataArray  type="Float64"  NumberOfComponents="3"  format="ascii">-0.05 0 0  -0.025 0 0  0 0 0  0.02500000000000001 0 0  0.05 0 0  -0.05 0.03846153846153846 0  -0.025 0.03846153846153846 0  0 0.03846153846153846 0  0.02500000000000001 0.03846153846153846 0  0.05 0.03846153846153846 0  -0.05 0.07692307692307693 0  -0.025 0.07692307692307693 0  0 0.07692307692307693 0  0.02500000000000001 0.07692307692307693 0  0.05 0.07692307692307693 0  -0.05 0.1153846153846154 0  -0.025 0.1153846153846154 0  0 0.1153846153846154 0  0.02500000000000001 0.1153846153846154 0  0.05 0.1153846153846154 0  -0.05 0.1538461538461539 0  -0.025 0.1538461538461539 0  0 0.1538461538461539 0  0.02500000000000001 0.1538461538461539 0  0.05 0.1538461538461539 0  -0.05 0.1923076923076923 0  -0.025 0.1923076923076923 0  0 0.1923076923076923 0  0.02500000000000001 0.1923076923076923 0  0.05 0.1923076923076923 0  -0.05 0.2307692307692308 0  -0.025 0.2307692307692308 0  0 0.2307692307692308 0  0.02500000000000001 0.2307692307692308 0  0.05 0.2307692307692308 0  -0.05 0.2692307692307692 0  -0.025 0.2692307692307692 0  0 0.2692307692307692 0  0.02500000000000001 0.2692307692307692 0  0.05 0.2692307692307692 0  -0.05 0.3076923076923077 0  -0.025 0.3076923076923077 0  0 0.3076923076923077 0  0.02500000000000001 0.3076923076923077 0  0.05 0.3076923076923077 0  -0.05 0.3461538461538461 0  -0.025 0.3461538461538461 0  0 0.3461538461538461 0  0.02500000000000001 0.3461538461538461 0  0.05 0.3461538461538461 0  -0.05 0.3846153846153846 0  -0.025 0.3846153846153846 0  0 0.3846153846153846 0  0.02500000000000001 0.3846153846153846 0  0.05 0.3846153846153846 0  -0.05 0.4230769230769231 0  -0.025 0.4230769230769231 0  0 0.4230769230769231 0  0.02500000000000001 0.4230769230769231 0  0.05 0.4230769230769231 0  -0.05 0.4615384615384616 0  -0.025 0.4615384615384616 0  0 0.4615384615384616 0  0.02500000000000001 0.4615384615384616 0  0.05 0.4615384615384616 0  -0.05 0.5 0  -0.025 0.5 0  0 0.5 0  0.02500000000000001 0.5 0  0.05 0.5 0  -0.05 0.5384615384615384 0  -0.025 0.5384615384615384 0  0 0.5384615384615384 0  0.02500000000000001 0.5384615384615384 0  0.05 0.5384615384615384 0  -0.05 0.5769230769230769 0  -0.025 0.5769230769230769 0  0 0.5769230769230769 0  0.02500000000000001 0.5769230769230769 0  0.05 0.5769230769230769 0  -0.05 0.6153846153846154 0  -0.025 0.6153846153846154 0  0 0.6153846153846154 0  0.02500000000000001 0.6153846153846154 0  0.05 0.6153846153846154 0  -0.05 0.6538461538461539 0  -0.025 0.6538461538461539 0  0 0.6538461538461539 0  0.02500000000000001 0.6538461538461539 0  0.05 0.6538461538461539 0  -0.05 0.6923076923076923 0  -0.025 0.6923076923076923 0  0 0.6923076923076923 0  0.02500000000000001 0.6923076923076923 0  0.05 0.6923076923076923 0  -0.05 0.7307692307692307 0  -0.025 0.7307692307692307 0  0 0.7307692307692307 0  0.02500000000000001 0.7307692307692307 0  0.05 0.7307692307692307 0  -0.05 0.7692307692307693 0  -0.025 0.7692307692307693 0  0 0.7692307692307693 0  0.02500000000000001 0.7692307692307693 0  0.05 0.7692307692307693 0  -0.05 0.8076923076923077 0  -0.025 0.8076923076923077 0  0 0.8076923076923077 0  0.02500000000000001 0.8076923076923077 0  0.05 0.8076923076923077 0  -0.05 0.8461538461538461 0  -0.025 0.8461538461538461 0  0 0.8461538461538461 0  0.02500000000000001 0.8461538461538461 0  0.05 0.8461538461538461 0  -0.05 0.8846153846153846 0  -0.025 0.8846153846153846 0  0 0.8846153846153846 0  0.02500000000000001 0.8846153846153846 0  0.05 0.8846153846153846 0  -0.05 0.9230769230769231 0  -0.025 0.9230769230769231 0  0 0.9230769230769231 0  0.02500000000000001 0.9230769230769231 0  0.05 0.9230769230769231 0  -0.05 0.9615384615384616 0  -0.025 0.9615384615384616 0  0 0.9615384615384616 0  0.02500000000000001 0.9615384615384616 0  0.05 0.9615384615384616 0  -0.05 1 0  -0.025 1 0  0 1 0  0.02500000000000001 1 0  0.05 1 0  </DataArray>
</Points>
<Cells>
<DataArray  type="UInt32"  Name="connectivity"  format="ascii">0 1 6  0 5 6  1 2 7  1 6 7  2 3 8  2 7 8  3 4 9  3 8 9  5 6 11  5 10 11  6 7 12  6 11 12  7 8 13  7 12 13  8 9 14  8 13 14  10 11 16  10 15 16  11 12 17  11 16 17  12 13 18  12 17 18  13 14 19  13 18 19  15 16 21  15 20 21  16 17 22  16 21 22  17 18 23  17 22 23  18 19 24  18 23 24  20 21 26  20 25 26  21 22 27  21 26 27  22 23 28  22 27 28  23 24 29  23 28 29  25 26 31  25 30 31  26 27 32  26 31 32  27 28 33  27 32 33  28 29 34  28 33 34  30 31 36  30 35 36  31 32 37  31 36 37  32 33 38  32 37 38  33 34 39  33 38 39  35 36 41  35 40 41  36 37 42  36 41 42  37 38 43  37 42 43  38 39 44  38 43 44  40 41 46  40 45 46  41 42 47  41 46 47  42 43 48  42 47 48  43 44 49  43 48 49  45 46 51  45 50 51  46 47 52  46 51 52  47 48 53  47 52 53  48 49 54  48 53 54  50 51 56  50 55 56  51 52 57  51 56 57  52 53 58  52 57 58  53 54 59  53 58 59  55 56 61  55 60 61  56 57 62  56 61 62  57 58 63  57 62 63  58 59 64  58 63 64  60 61 66  60 65 66  61 62 67  61 66 67  62 63 68  62 67 68  63 64 69  63 68 69  65 66 71  65 70 71  66 67 72  66 71 72  67 68 73  67 72 73  68 69 74  68 73 74  70 71 76  70 75 76  71 72 77  71 76 77  72 73 78  72 77 78  73 74 79  73 78 79  75 76 81  75 80 81  76 77 82  76 81 82  77 78 83  77 82 83  78 79 84  78 83 84  80 81 86  80 85 86  81 82 87  81 86 87  82 83 88  82 87 88  83 84 89  83 88 89  85 86 91  85 90 91  86 87 92  86 91 92  87 88 93  87 92 93  88 89 94  88 93 94  90 91 96  90 95 96  91 92 97  91 96 97  92 93 98  92 97 98  93 94 99  93 98 99  95 96 101  95 100 101  96 97 102  96 101 102  97 98 103  97 102 103  98 99 104  98 103 104  100 101 106  100 105 106  101 102 107  101 106 107  102 103 108  102 107 108  103 104 109  103 108 109  105 106 111  105 110 111  106 107 112  106 111 112  107 108 113  107 112 113  108 109 114  108 113 114  110 111 116  110 115 116  111 112 117  111 116 117  112 113 118  112 117 118  113 114 119  113 118 119  115 116 121  115 120 121  116 117 122  116 121 122  117 118 123  117 122 123  118 119 124  118 123 124  120 121 126  120 125 126  121 122 127  121 126 127  122 123 128  122 127 128  123 124 129  123 128 129  125 126 131  125 130 131  126 127 132  126 131 132  127 128 133  127 132 133  128 129 134  128 133 134  </DataArray>
<DataArray  type="UInt32"  Name="offsets"  format="ascii">3 6 9 12 15 18 21 24 27 30 33 36 39 42 45 48 51 54 57 60 63 66 69 72 75 78 81 84 87 90 93 96 99 102 105 108 111 114 117 120 123 126 129 132 135 138 141 144 147 150 153 156 159 162 165 168 171 174 177 180 183 186 189 192 195 198 201 204 207 210 213 216 219 222 225 228 231 234 237 240 243 246 249 252 255 258 261 264 267 270 273 276 279 282 285 288 291 294 297 300 303 306 309 312 315 318 321 324 327 330 333 336 339 342 345 348 351 354 357 360 363 366 369 372 375 378 381 384 387 390 393 396 399 402 405 408 411 414 417 420 423 426 429 432 435 438 441 444 447 450 453 456 459 462 465 468 471 474 477 480 483 486 489 492 495 498 501 504 507 510 513 516 519 522 525 528 531 534 537 540 543 546 549 552 555 558 561 564 567 570 573 576 579 582 585 588 591 594 597 600 603 606 609 612 615 618 621 624 </DataArray>
<DataArray  type="UInt8"  Name="types"  format="ascii">5 5 5 5 5 5 5 5 5 5 5 5 5 5 5 5 5 5 5 5 5 5 5 5 5 5 5 5 5 5 5 5 5 5 5 5 5 5 5 5 5 5 5 5 5 5 5 5 5 5 5 5 5 5 5 5 5 5 5 5 5 5 5 5 5 5 5 5 5 5 5 5 5 5 5 5 5 5 5 5 5 5 5 5 5 5 5 5 5 5 5 5 5 5 5 5 5 5 5 5 5 5 5 5 5 5 5 5 5 5 5 5 5 5 5 5 5 5 5 5 5 5 5 5 5 5 5 5 5 5 5 5 5 5 5 5 5 5 5 5 5 5 5 5 5 5 5 5 5 5 5 5 5 5 5 5 5 5 5 5 5 5 5 5 5 5 5 5 5 5 5 5 5 5 5 5 5 5 5 5 5 5 5 5 5 5 5 5 5 5 5 5 5 5 5 5 5 5 5 5 5 5 5 5 5 5 5 5 </DataArray>
</Cells>
<PointData  Vectors="Displacement"> 
<DataArray  type="Float64"  Name="Displacement"  NumberOfComponents="3" format="ascii">-4.5105579400485191e-16 3.6018975802347605e-18 0.0000000000000000e+00  0.0000000000000000e+00 0.0000000000000000e+00 0.0000000000000000e+00  0.0000000000000000e+00 0.0000000000000000e+00 0.0000000000000000e+00  -5.4228298505177943e-17 5.6083043417884619e-19 0.0000000000000000e+00  1.6268489551553383e-16 -1.6824913025365387e-18 0.0000000000000000e+00  1.2685823961328707e-04 1.8616273834598529e-04 0.0000000000000000e+00  8.6087473018854111e-05 9.3006992515906901e-05 0.0000000000000000e+00  6.9627126893387781e-05 9.9273586794746389e-06 0.0000000000000000e+00  7.8336505537652068e-05 -7.1318312285198064e-05 0.0000000000000000e+00  1.1218609947587922e-04 -1.6396167007098287e-04 0.0000000000000000e+00  3.3602130473016996e-04 3.5983250714927297e-04 0.0000000000000000e+00  2.9837440292080909e-04 1.8744306019261741e-04 0.0000000000000000e+00  2.8308533250883273e-04 2.0927826762447161e-05 0.0000000000000000e+00  2.9093865334617753e-04 -1.4432632122925423e-04 0.0000000000000000e+00  3.2128563831562419e-04 -3.1553205967283768e-04 0.0000000000000000e+00  6.6366656482838170e-04 5.2486112740943538e-04 0.0000000000000000e+00  6.2724582332746612e-04 2.7702985662070176e-04 0.0000000000000000e+00  6.1203663686403953e-04 3.2045614557299427e-05 0.0000000000000000e+00  6.1954669673431825e-04 -2.1292745173287763e-04 0.0000000000000000e+00  6.4883194390898179e-04 -4.6107133288849619e-04 0.0000000000000000e+00  1.1050312240295092e-03 6.8533602867256989e-04 0.0000000000000000e+00  1.0698747529385667e-03 3.6316052359347892e-04 0.0000000000000000e+00  1.0558627218250109e-03 4.2544363187115003e-05 0.0000000000000000e+00  1.0633076270032257e-03 -2.7839664548500614e-04 0.0000000000000000e+00  1.0912196598923465e-03 -6.0135042823835662e-04 0.0000000000000000e+00  1.6589657528124720e-03 8.4321363956538556e-04 0.0000000000000000e+00  1.6249362346317656e-03 4.4741923509847645e-04 0.0000000000000000e+00  1.6113669477351327e-03 5.2732242603217127e-05 0.0000000000000000e+00  1.6183432114123403e-03 -3.4197483681106775e-04 0.0000000000000000e+00  1.6459529513703532e-03 -7.3810254637172567e-04 0.0000000000000000e+00  2.3251977060371070e-03 9.9981765467294743e-04 0.0000000000000000e+00  2.2899175545937926e-03 5.3162660821628798e-04 0.0000000000000000e+00  2.2765509027097459e-03 6.3329109648753242e-05 0.0000000000000000e+00  2.2841211914445326e-03 -4.0495543588296977e-04 0.0000000000000000e+00  2.3121659725133408e-03 -8.7347316668378693e-04 0.0000000000000000e+00  3.0988908203553253e-03 1.1583879849367690e-03 0.0000000000000000e+00  3.0643528368211590e-03 6.1607494107993597e-04 0.0000000000000000e+00  3.0509943050516511e-03 7.3188966577366260e-05 0.0000000000000000e+00  3.0584826325370340e-03 -4.6900207793130122e-04 0.0000000000000000e+00  3.0863020312479963e-03 -1.0095509869853317e-03 0.0000000000000000e+00  3.9878613953345451e-03 1.3194219514940069e-03 0.0000000000000000e+00  3.9514033455010505e-03 7.0273362636822235e-04 0.0000000000000000e+00  3.9367774996881093e-03 8.3479874415522701e-05 0.0000000000000000e+00  3.9438494338639857e-03 -5.3462962302570764e-04 0.0000000000000000e+00  3.9730373247824175e-03 -1.1504836588617938e-03 0.0000000000000000e+00  4.9923909115387379e-03 1.4853701766413209e-03 0.0000000000000000e+00  4.9563825859867509e-03 7.9031854052052431e-04 0.0000000000000000e+00  4.9420953995738450e-03 9.3931453485478165e-05 0.0000000000000000e+00  4.9494949373283760e-03 -6.0249022657410747e-04 0.0000000000000000e+00  4.9794434192402901e-03 -1.2982745624684692e-03 0.0000000000000000e+00  6.1259916862493003e-03 1.6562879867366141e-03 0.0000000000000000e+00  6.0892693588660797e-03 8.7891955242284448e-04 0.0000000000000000e+00  6.0752599912735194e-03 1.0402142615334818e-04 0.0000000000000000e+00  6.0827874202154875e-03 -6.7194683284305015e-04 0.0000000000000000e+00  6.1129550380057832e-03 -1.4498072103014867e-03 0.0000000000000000e+00  7.3912483273914026e-03 1.8248279876077720e-03 0.0000000000000000e+00  7.3558882482599791e-03 9.6604616185703334e-04 0.0000000000000000e+00  7.3428203325161777e-03 1.1372207035970635e-04 0.0000000000000000e+00  7.3499917997783878e-03 -7.3869772996636445e-04 0.0000000000000000e+00  7.3784706481880976e-03 -1.5982498510455122e-03 0.0000000000000000e+00  8.7805119863634800e-03 1.9807293106278473e-03 0.0000000000000000e+00  8.7500000504024816e-03 1.0467676578426747e-03 0.0000000000000000e+00  8.7381410203513574e-03 1.2353027509422887e-04 0.0000000000000000e+00  8.7444886879742261e-03 -7.9961236306231958e-04 0.0000000000000000e+00  8.7696060286540835e-03 -1.7336606035456437e-03 0.0000000000000000e+00  1.0283118906985666e-02 2.1151251399372200e-03 0.0000000000000000e+00  1.0255815150829271e-02 1.1179020845824693e-03 0.0000000000000000e+00  1.0245151559434321e-02 1.3309508130740321e-04 0.0000000000000000e+00  1.0250289978748913e-02 -8.5124813087128070e-04 0.0000000000000000e+00  1.0271276652963297e-02 -1.8473958186086747e-03 0.0000000000000000e+00  1.1871889402476115e-02 2.2219417658506891e-03 0.0000000000000000e+00  1.1852049846182782e-02 1.1753927186670822e-03 0.0000000000000000e+00  1.1842987830965334e-02 1.4218082853036440e-04 0.0000000000000000e+00  1.1845449325245597e-02 -8.9035143590858901e-04 0.0000000000000000e+00  1.1860197048455211e-02 -1.9364539329149242e-03 0.0000000000000000e+00  1.3527125758815730e-02 2.3003456882140115e-03 0.0000000000000000e+00  1.3511273014022180e-02 1.2194276080661390e-03 0.0000000000000000e+00  1.3503952719624564e-02 1.5105673948021724e-04 0.0000000000000000e+00  1.3505301367960571e-02 -9.1746796293837004e-04 0.0000000000000000e+00  1.3515508964178817e-02 -1.9982193934476181e-03 0.0000000000000000e+00  1.5219927966620063e-02 2.3529889487276666e-03 0.0000000000000000e+00  1.5209088847006008e-02 1.2515144745878124e-03 0.0000000000000000e+00  1.5203299576291966e-02 1.5917504915143195e-04 0.0000000000000000e+00  1.5203292309185086e-02 -9.3352436121131404e-04 0.0000000000000000e+00  1.5209070594188020e-02 -2.0354694112154170e-03 0.0000000000000000e+00  1.6931336591217788e-02 2.3870729441917535e-03 0.0000000000000000e+00  1.6923581277702993e-02 1.2744029109149101e-03 0.0000000000000000e+00  1.6918962252290247e-02 1.6651829079113352e-04 0.0000000000000000e+00  1.6918852317645845e-02 -9.4180544050986360e-04 0.0000000000000000e+00  1.6922185222520088e-02 -2.0552065793986597e-03 0.0000000000000000e+00  1.8654930960219290e-02 2.4135794516072073e-03 0.0000000000000000e+00  1.8647700097509108e-02 1.2919962532096753e-03 0.0000000000000000e+00  1.8644522378307594e-02 1.7296782836093423e-04 0.0000000000000000e+00  1.8644100324873090e-02 -9.4608319034750340e-04 0.0000000000000000e+00  1.8646319376552419e-02 -2.0675823129115483e-03 0.0000000000000000e+00  2.0388783519384366e-02 2.4358074171173926e-03 0.0000000000000000e+00  2.0384553236557971e-02 1.3051515506567835e-03 0.0000000000000000e+00  2.0381878065617601e-02 1.7846084263259735e-04 0.0000000000000000e+00  2.0380830963936353e-02 -9.4759402692111720e-04 0.0000000000000000e+00  2.0381674051012523e-02 -2.0770013620176006e-03 0.0000000000000000e+00  2.2137709665351116e-02 2.4507593279079420e-03 0.0000000000000000e+00  2.2132823685259928e-02 1.3154073472101261e-03 0.0000000000000000e+00  2.2129897205654243e-02 1.8363193970710536e-04 0.0000000000000000e+00  2.2128862063262322e-02 -9.4706362805961012e-04 0.0000000000000000e+00  2.2129400888749432e-02 -2.0806600128696908e-03 0.0000000000000000e+00  2.3885699072611354e-02 2.4579315420894484e-03 0.0000000000000000e+00  2.3883756128757119e-02 1.3219657734257104e-03 0.0000000000000000e+00  2.3881353329997839e-02 1.8855930407103030e-04 0.0000000000000000e+00  2.3879343977504568e-02 -9.4417267493534737e-04 0.0000000000000000e+00  2.3878389040217447e-02 -2.0792294752073844e-03 0.0000000000000000e+00  2.5634246630765970e-02 2.4614278380892104e-03 0.0000000000000000e+00  2.5631567227526512e-02 1.3265134110774335e-03 0.0000000000000000e+00  2.5629220807513391e-02 1.9316369126633009e-04 0.0000000000000000e+00  2.5628088950755822e-02 -9.4033178257102185e-04 0.0000000000000000e+00  2.5627697172860779e-02 -2.0746674154000170e-03 0.0000000000000000e+00  2.7378137014790114e-02 2.4644102367940516e-03 0.0000000000000000e+00  2.7375210831905646e-02 1.3308424131563789e-03 0.0000000000000000e+00  2.7373124804836408e-02 1.9742845883818837e-04 0.0000000000000000e+00  2.7371629369252255e-02 -9.3651950706806172e-04 0.0000000000000000e+00  2.7370929436264138e-02 -2.0698420522258679e-03 0.0000000000000000e+00  2.9118882592504607e-02 2.4695905859437547e-03 0.0000000000000000e+00  2.9116758088093442e-02 1.3348544841454832e-03 0.0000000000000000e+00  2.9115283943821863e-02 2.0096498890585598e-04 0.0000000000000000e+00  2.9114710561174140e-02 -9.3318957971607957e-04 0.0000000000000000e+00  2.9114740720553853e-02 -2.0677587809335269e-03 0.0000000000000000e+00  3.0867097946498188e-02 2.4752622193969700e-03 0.0000000000000000e+00  3.0862913298162768e-02 1.3386333628074407e-03 0.0000000000000000e+00  3.0861226792616461e-02 2.0363263202901089e-04 0.0000000000000000e+00  3.0861004679838624e-02 -9.3178841864726694e-04 0.0000000000000000e+00  3.0862630890030832e-02 -2.0656656306279526e-03 0.0000000000000000e+00  3.2611897195075040e-02 2.4787773123662099e-03 0.0000000000000000e+00  3.2610419429067741e-02 1.3424379187762191e-03 0.0000000000000000e+00  3.2608967147566198e-02 2.0657117707648264e-04 0.0000000000000000e+00  3.2607764970847872e-02 -9.2939394862222519e-04 0.0000000000000000e+00  3.2606629713631964e-02 -2.0651501855742452e-03 0.0000000000000000e+00  </DataArray> 
</PointData> 
</Piece>
</UnstructuredGrid>
</VTKFile>