<?xml version="1.0"?>
<VTKFile type="UnstructuredGrid"  version="0.1"  >
<UnstructuredGrid>
<Piece  NumberOfPoints="135" NumberOfCells="208">
<Points>
<DataArray  type="Float64"  NumberOfComponents="3"  format="ascii">-0.05 0 0  -0.025 0 0  0 0 0  0.02500000000000001 0 0  0.05 0 0  -0.05 0.03846153846153846 0  -0.025 0.03846153846153846 0  0 0.03846153846153846 0  0.02500000000000001 0.03846153846153846 0  0.05 0.03846153846153846 0  -0.05 0.07692307692307693 0  -0.025 0.07692307692307693 0  0 0.07692307692307693 0  0.02500000000000001 0.07692307692307693 0  0.05 0.07692307692307693 0  -0.05 0.1153846153846154 0  -0.025 0.1153846153846154 0  0 0.1153846153846154 0  0.02500000000000001 0.1153846153846154 0  0.05 0.1153846153846154 0  -0.05 0.1538461538461539 0  -0.025 0.1538461538461539 0  0 0.1538461538461539 0  0.02500000000000001 0.1538461538461539 0  0.05 0.1538461538461539 0  -0.05 0.1923076923076923 0  -0.025 0.1923076923076923 0  0 0.1923076923076923 0  0.02500000000000001 0.1923076923076923 0  0.05 0.1923076923076923 0  -0.05 0.2307692307692308 0  -0.025 0.2307692307692308 0  0 0.2307692307692308 0  0.02500000000000001 0.2307692307692308 0  0.05 0.2307692307692308 0  -0.05 0.2692307692307692 0  -0.025 0.2692307692307692 0  0 0.2692307692307692 0  0.02500000000000001 0.2692307692307692 0  0.05 0.2692307692307692 0  -0.05 0.3076923076923077 0  -0.025 0.3076923076923077 0  0 0.3076923076923077 0  0.02500000000000001 0.3076923076923077 0  0.05 0.3076923076923077 0  -0.05 0.3461538461538461 0  -0.025 0.3461538461538461 0  0 0.3461538461538461 0  0.02500000000000001 0.3461538461538461 0  0.05 0.3461538461538461 0  -0.05 0.3846153846153846 0  -0.025 0.3846153846153846 0  0 0.3846153846153846 0  0.02500000000000001 0.3846153846153846 0  0.05 0.3846153846153846 0  -0.05 0.4230769230769231 0  -0.025 0.4230769230769231 0  0 0.4230769230769231 0  0.02500000000000001 0.4230769230769231 0  0.05 0.4230769230769231 0  -0.05 0.4615384615384616 0  -0.025 0.4615384615384616 0  0 0.4615384615384616 0  0.02500000000000001 0.4615384615384616 0  0.05 0.4615384615384616 0  -0.05 0.5 0  -0.025 0.5 0  0 0.5 0  0.02500000000000001 0.5 0  0.05 0.5 0  -0.05 0.5384615384615384 0  -0.025 0.5384615384615384 0  0 0.5384615384615384 0  0.02500000000000001 0.5384615384615384 0  0.05 0.5384615384615384 0  -0.05 0.5769230769230769 0  -0.025 0.5769230769230769 0  0 0.5769230769230769 0  0.02500000000000001 0.5769230769230769 0  0.05 0.5769230769230769 0  -0.05 0.6153846153846154 0  -0.025 0.6153846153846154 0  0 0.6153846153846154 0  0.02500000000000001 0.6153846153846154 0  0.05 0.6153846153846154 0  -0.05 0.6538461538461539 0  -0.025 0.6538461538461539 0  0 0.6538461538461539 0  0.02500000000000001 0.6538461538461539 0  0.05 0.6538461538461539 0  -0.05 0.6923076923076923 0  -0.025 0.6923076923076923 0  0 0.6923076923076923 0  0.02500000000000001 0.6923076923076923 0  0.05 0.6923076923076923 0  -0.05 0.7307692307692307 0  -0.025 0.7307692307692307 0  0 0.7307692307692307 0  0.02500000000000001 0.7307692307692307 0  0.05 0.7307692307692307 0  -0.05 0.7692307692307693 0  -0.025 0.7692307692307693 0  0 0.7692307692307693 0  0.02500000000000001 0.7692307692307693 0  0.05 0.7692307692307693 0  -0.05 0.8076923076923077 0  -0.025 0.8076923076923077 0  0 0.8076923076923077 0  0.02500000000000001 0.8076923076923077 0  0.05 0.8076923076923077 0  -0.05 0.8461538461538461 0  -0.025 0.8461538461538461 0  0 0.8461538461538461 0  0.02500000000000001 0.8461538461538461 0  0.05 0.8461538461538461 0  -0.05 0.8846153846153846 0  -0.025 0.8846153846153846 0  0 0.8846153846153846 0  0.02500000000000001 0.8846153846153846 0  0.05 0.8846153846153846 0  -0.05 0.9230769230769231 0  -0.025 0.9230769230769231 0  0 0.9230769230769231 0  0.02500000000000001 0.9230769230769231 0  0.05 0.9230769230769231 0  -0.05 0.9615384615384616 0  -0.025 0.9615384615384616 0  0 0.9615384615384616 0  0.02500000000000001 0.9615384615384616 0  0.05 0.9615384615384616 0  -0.05 1 0  -0.025 1 0  0 1 0  0.02500000000000001 1 0  0.05 1 0  </DataArray>
</Points>
<Cells>
<DataArray  type="UInt32"  Name="connectivity"  format="ascii">0 1 6  0 5 6  1 2 7  1 6 7  2 3 8  2 7 8  3 4 9  3 8 9  5 6 11  5 10 11  6 7 12  6 11 12  7 8 13  7 12 13  8 9 14  8 13 14  10 11 16  10 15 16  11 12 17  11 16 17  12 13 18  12 17 18  13 14 19  13 18 19  15 16 21  15 20 21  16 17 22  16 21 22  17 18 23  17 22 23  18 19 24  18 23 24  20 21 26  20 25 26  21 22 27  21 26 27  22 23 28  22 27 28  23 24 29  23 28 29  25 26 31  25 30 31  26 27 32  26 31 32  27 28 33  27 32 33  28 29 34  28 33 34  30 31 36  30 35 36  31 32 37  31 36 37  32 33 38  32 37 38  33 34 39  33 38 39  35 36 41  35 40 41  36 37 42  36 41 42  37 38 43  37 42 43  38 39 44  38 43 44  40 41 46  40 45 46  41 42 47  41 46 47  42 43 48  42 47 48  43 44 49  43 48 49  45 46 51  45 50 51  46 47 52  46 51 52  47 48 53  47 52 53  48 49 54  48 53 54  50 51 56  50 55 56  51 52 57  51 56 57  52 53 58  52 57 58  53 54 59  53 58 59  55 56 61  55 60 61  56 57 62  56 61 62  57 58 63  57 62 63  58 59 64  58 63 64  60 61 66  60 65 66  61 62 67  61 66 67  62 63 68  62 67 68  63 64 69  63 68 69  65 66 71  65 70 71  66 67 72  66 71 72  67 68 73  67 72 73  68 69 74  68 73 74  70 71 76  70 75 76  71 72 77  71 76 77  72 73 78  72 77 78  73 74 79  73 78 79  75 76 81  75 80 81  76 77 82  76 81 82  77 78 83  77 82 83  78 79 84  78 83 84  80 81 86  80 85 86  81 82 87  81 86 87  82 83 88  82 87 88  83 84 89  83 88 89  85 86 91  85 90 91  86 87 92  86 91 92  87 88 93  87 92 93  88 89 94  88 93 94  90 91 96  90 95 96  91 92 97  91 96 97  92 93 98  92 97 98  93 94 99  93 98 99  95 96 101  95 100 101  96 97 102  96 101 102  97 98 103  97 102 103  98 99 104  98 103 104  100 101 106  100 105 106  101 102 107  101 106 107  102 103 108  102 107 108  103 104 109  103 108 109  105 106 111  105 110 111  106 107 112  106 111 112  107 108 113  107 112 113  108 109 114  108 113 114  110 111 116  110 115 116  111 112 117  111 116 117  112 113 118  112 117 118  113 114 119  113 118 119  115 116 121  115 120 121  116 117 122  116 121 122  117 118 123  117 122 123  118 119 124  118 123 124  120 121 126  120 125 126  121 122 127  121 126 127  122 123 128  122 127 128  123 124 129  123 128 129  125 126 131  125 130 131  126 127 132  126 131 132  127 128 133  127 132 133  128 129 134  128 133 134  </DataArray>
<DataArray  type="UInt32"  Name="offsets"  format="ascii">3 6 9 12 15 18 21 24 27 30 33 36 39 42 45 48 51 54 57 60 63 66 69 72 75 78 81 84 87 90 93 96 99 102 105 108 111 114 117 120 123 126 129 132 135 138 141 144 147 150 153 156 159 162 165 168 171 174 177 180 183 186 189 192 195 198 201 204 207 210 213 216 219 222 225 228 231 234 237 240 243 246 249 252 255 258 261 264 267 270 273 276 279 282 285 288 291 294 297 300 303 306 309 312 315 318 321 324 327 330 333 336 339 342 345 348 351 354 357 360 363 366 369 372 375 378 381 384 387 390 393 396 399 402 405 408 411 414 417 420 423 426 429 432 435 438 441 444 447 450 453 456 459 462 465 468 471 474 477 480 483 486 489 492 495 498 501 504 507 510 513 516 519 522 525 528 531 534 537 540 543 546 549 552 555 558 561 564 567 570 573 576 579 582 585 588 591 594 597 600 603 606 609 612 615 618 621 624 </DataArray>
<DataArray  type="UInt8"  Name="types"  format="ascii">5 5 5 5 5 5 5 5 5 5 5 5 5 5 5 5 5 5 5 5 5 5 5 5 5 5 5 5 5 5 5 5 5 5 5 5 5 5 5 5 5 5 5 5 5 5 5 5 5 5 5 5 5 5 5 5 5 5 5 5 5 5 5 5 5 5 5 5 5 5 5 5 5 5 5 5 5 5 5 5 5 5 5 5 5 5 5 5 5 5 5 5 5 5 5 5 5 5 5 5 5 5 5 5 5 5 5 5 5 5 5 5 5 5 5 5 5 5 5 5 5 5 5 5 5 5 5 5 5 5 5 5 5 5 5 5 5 5 5 5 5 5 5 5 5 5 5 5 5 5 5 5 5 5 5 5 5 5 5 5 5 5 5 5 5 5 5 5 5 5 5 5 5 5 5 5 5 5 5 5 5 5 5 5 5 5 5 5 5 5 5 5 5 5 5 5 5 5 5 5 5 5 5 5 5 5 5 5 </DataArray>
</Cells>
<PointData  Vectors="Displacement"> 
<DataArray  type="Float64"  Name="Displacement"  NumberOfComponents="3" format="ascii">-4.6941110107932607e-16 1.0721747314033016e-17 0.0000000000000000e+00  0.0000000000000000e+00 0.0000000000000000e+00 0.0000000000000000e+00  0.0000000000000000e+00 0.0000000000000000e+00 0.0000000000000000e+00  -5.8400210124535754e-17 1.5600487193372076e-18 0.0000000000000000e+00  1.7520063037360726e-16 -4.6801461580116228e-18 0.0000000000000000e+00  8.2081590158419643e-04 1.2040759418554053e-03 0.0000000000000000e+00  5.7281597288330209e-04 5.7064135906789238e-04 0.0000000000000000e+00  4.8087532274582271e-04 2.3041516939303661e-06 0.0000000000000000e+00  5.5879985901042812e-04 -5.6094432488307418e-04 0.0000000000000000e+00  8.1274314520913995e-04 -1.2103640021529959e-03 0.0000000000000000e+00  2.2766390277854241e-03 2.3205274193969991e-03 0.0000000000000000e+00  2.0503906749376548e-03 1.1370144571868071e-03 0.0000000000000000e+00  1.9742773661326914e-03 2.6424451354255149e-06 0.0000000000000000e+00  2.0511884782250050e-03 -1.1328385177079001e-03 0.0000000000000000e+00  2.2775273745149140e-03 -2.3192581605302252e-03 0.0000000000000000e+00  4.5595091080075263e-03 3.3501551751604149e-03 0.0000000000000000e+00  4.3536797317830014e-03 1.6531496947429613e-03 0.0000000000000000e+00  4.2847470962698361e-03 1.9963622486993006e-06 0.0000000000000000e+00  4.3539597915762344e-03 -1.6493109031125485e-03 0.0000000000000000e+00  4.5607076293755471e-03 -3.3470895164062881e-03 0.0000000000000000e+00  7.5913142375890483e-03 4.2874699519834351e-03 0.0000000000000000e+00  7.4044107376900680e-03 2.1230084233690564e-03 0.0000000000000000e+00  7.3427129765355117e-03 1.7424130362290221e-06 0.0000000000000000e+00  7.4057012537818798e-03 -2.1202558825376707e-03 0.0000000000000000e+00  7.5940050781871651e-03 -4.2855886017833522e-03 0.0000000000000000e+00  1.1306414278349341e-02 5.1418618214585836e-03 0.0000000000000000e+00  1.1136684450933155e-02 2.5501827592633274e-03 0.0000000000000000e+00  1.1080464483187899e-02 5.6800780065062393e-07 0.0000000000000000e+00  1.1138097832500447e-02 -2.5487970135117007e-03 0.0000000000000000e+00  1.1309517274535118e-02 -5.1396652940464025e-03 0.0000000000000000e+00  1.5648986024018884e-02 5.9169678391591150e-03 0.0000000000000000e+00  1.5494276134052862e-02 2.9385643759079500e-03 0.0000000000000000e+00  1.5442308664807503e-02 5.7580460368821303e-07 0.0000000000000000e+00  1.5493496015191528e-02 -2.9376701824983735e-03 0.0000000000000000e+00  1.5648919048925042e-02 -5.9156254699117040e-03 0.0000000000000000e+00  2.0550928779313637e-02 6.6150435735943119e-03 0.0000000000000000e+00  2.0413033137023164e-02 3.2887778951129995e-03 0.0000000000000000e+00  2.0366938740717454e-02 1.6759139383955489e-07 0.0000000000000000e+00  2.0413992807304649e-02 -3.2882484251730640e-03 0.0000000000000000e+00  2.0553560455629286e-02 -6.6156837109947759e-03 0.0000000000000000e+00  2.5959501556069412e-02 7.2394617442566728e-03 0.0000000000000000e+00  2.5835681710409904e-02 3.6019027567570296e-03 0.0000000000000000e+00  2.5794619273704834e-02 -8.3180194044159403e-07 0.0000000000000000e+00  2.5836692558215857e-02 -3.6038542550351966e-03 0.0000000000000000e+00  2.5962026923372489e-02 -7.2412479363650221e-03 0.0000000000000000e+00  3.1813122662586180e-02 7.7943204331212702e-03 0.0000000000000000e+00  3.1703255568418631e-02 3.8806585425327847e-03 0.0000000000000000e+00  3.1666521986405412e-02 -1.5627945632825043e-06 0.0000000000000000e+00  3.1703807502292229e-02 -3.8847109259775429e-03 0.0000000000000000e+00  3.1814826154371437e-02 -7.7991435654269940e-03 0.0000000000000000e+00  3.8064297218327360e-02 8.2893865339313689e-03 0.0000000000000000e+00  3.7966400924007770e-02 4.1294912936374857e-03 0.0000000000000000e+00  3.7934231607668789e-02 -2.6673448362436713e-06 0.0000000000000000e+00  3.7967946606580046e-02 -4.1349735627817102e-03 0.0000000000000000e+00  3.8067128171182046e-02 -8.2961191791789488e-03 0.0000000000000000e+00  4.4672569725266627e-02 8.7304585085522610e-03 0.0000000000000000e+00  4.4585315559630537e-02 4.3495486151456922e-03 0.0000000000000000e+00  4.4557026263022007e-02 -4.0949907798223905e-06 0.0000000000000000e+00  4.4587081291600675e-02 -4.3577975330576996e-03 0.0000000000000000e+00  4.4675500388452354e-02 -8.7375262809911668e-03 0.0000000000000000e+00  5.1595783474659311e-02 9.1206065828373841e-03 0.0000000000000000e+00  5.1519175103126140e-02 4.5455278532390434e-03 0.0000000000000000e+00  5.1493247221612852e-02 -5.1624115414171961e-06 0.0000000000000000e+00  5.1519267988643376e-02 -4.5551136866066070e-03 0.0000000000000000e+00  5.1596844657690190e-02 -9.1295304119950859e-03 0.0000000000000000e+00  5.8798219247390815e-02 9.4637847116735598e-03 0.0000000000000000e+00  5.8729388021263172e-02 4.7185564600023292e-03 0.0000000000000000e+00  5.8706422763873597e-02 -5.2072554528678690e-06 0.0000000000000000e+00  5.8729378141980766e-02 -4.7291130950198540e-03 0.0000000000000000e+00  5.8798444215197657e-02 -9.4745628218192279e-03 0.0000000000000000e+00  6.6239348205176393e-02 9.7657454973686438e-03 0.0000000000000000e+00  6.6180237363624994e-02 4.8705629506850309e-03 0.0000000000000000e+00  6.6160693520569566e-02 -5.9841014977262179e-06 0.0000000000000000e+00  6.6181355073222800e-02 -4.8825414680547527e-03 0.0000000000000000e+00  6.6241612703246064e-02 -9.7777404421697852e-03 0.0000000000000000e+00  7.3898275054900681e-02 1.0032419095511473e-02 0.0000000000000000e+00  7.3844767656049970e-02 5.0048361643737996e-03 0.0000000000000000e+00  7.3827041011841177e-02 -6.0132705956390032e-06 0.0000000000000000e+00  7.3844732781037245e-02 -5.0168129150081021e-03 0.0000000000000000e+00  7.3897946782430987e-02 -1.0043855001489146e-02 0.0000000000000000e+00  8.1742494910645933e-02 1.0268173766684921e-02 0.0000000000000000e+00  8.1695280884164390e-02 5.1242922510042763e-03 0.0000000000000000e+00  8.1679435273036186e-02 -5.1563680961178110e-06 0.0000000000000000e+00  8.1695259832891484e-02 -5.1351503252303346e-03 0.0000000000000000e+00  8.1742603769553057e-02 -1.0279669625811031e-02 0.0000000000000000e+00  8.9754357496023007e-02 1.0478525943962501e-02 0.0000000000000000e+00  8.9712716715086904e-02 5.2301799836670599e-03 0.0000000000000000e+00  8.9699426542451846e-02 -5.1005832257361177e-06 0.0000000000000000e+00  8.9714011807283792e-02 -5.2403184320622799e-03 0.0000000000000000e+00  8.9755805211022957e-02 -1.0488551531191789e-02 0.0000000000000000e+00  9.7917824878405987e-02 1.0664752628405157e-02 0.0000000000000000e+00  9.7879819165115456e-02 5.3241160645306554e-03 0.0000000000000000e+00  9.7866948561102354e-02 -4.8636142729386967e-06 0.0000000000000000e+00  9.7879143884502140e-02 -5.3337500419565935e-03 0.0000000000000000e+00  9.7916737218228050e-02 -1.0673200836225343e-02 0.0000000000000000e+00  1.0620848064389814e-01 1.0828982311593514e-02 0.0000000000000000e+00  1.0617599710578995e-01 5.4074474113183692e-03 0.0000000000000000e+00  1.0616487284603821e-01 -4.2354993405471181e-06 0.0000000000000000e+00  1.0617551409755589e-01 -5.4163114291283154e-03 0.0000000000000000e+00  1.0620825349570745e-01 -1.0838518222408213e-02 0.0000000000000000e+00  1.1461941619418571e-01 1.0975403565781670e-02 0.0000000000000000e+00  1.1458907233917462e-01 5.4810469739513664e-03 0.0000000000000000e+00  1.1457937890357159e-01 -4.0739990779877237e-06 0.0000000000000000e+00  1.1458960533669042e-01 -5.4897599302695787e-03 0.0000000000000000e+00  1.1461952863106754e-01 -1.0984004385983093e-02 0.0000000000000000e+00  1.2313174274264121e-01 1.1106149911940434e-02 0.0000000000000000e+00  1.2310576366919398e-01 5.5463672158394556e-03 0.0000000000000000e+00  1.2309710630157418e-01 -4.3561286979144736e-06 0.0000000000000000e+00  1.2310537754342053e-01 -5.5552209255392516e-03 0.0000000000000000e+00  1.2313105707220251e-01 -1.1113900954187943e-02 0.0000000000000000e+00  1.3174368861633493e-01 1.1222289322618342e-02 0.0000000000000000e+00  1.3172093805120483e-01 5.6040666732506093e-03 0.0000000000000000e+00  1.3171381731635828e-01 -3.3398751098359557e-06 0.0000000000000000e+00  1.3172056320949660e-01 -5.6105281421628067e-03 0.0000000000000000e+00  1.3174252640871364e-01 -1.1229167782250001e-02 0.0000000000000000e+00  1.4044084613579855e-01 1.1317944105370126e-02 0.0000000000000000e+00  1.4042340592432784e-01 5.6501573908915295e-03 0.0000000000000000e+00  1.4041850656640176e-01 -2.5911301090045963e-06 0.0000000000000000e+00  1.4042441123812091e-01 -5.6550548344577456e-03 0.0000000000000000e+00  1.4044174250503255e-01 -1.1321651583730202e-02 0.0000000000000000e+00  1.4920439934551810e-01 1.1383823521349907e-02 0.0000000000000000e+00  1.4919394526645363e-01 5.6826683465150797e-03 0.0000000000000000e+00  1.4919021393592757e-01 -2.2182237795156179e-06 0.0000000000000000e+00  1.4919362103639017e-01 -5.6859883647352328e-03 0.0000000000000000e+00  1.4920433336164926e-01 -1.1383810943816729e-02 0.0000000000000000e+00  1.5800547157044786e-01 1.1415234654104666e-02 0.0000000000000000e+00  1.5799808512031135e-01 5.7015429512380757e-03 0.0000000000000000e+00  1.5799472124568184e-01 -1.0805926117075374e-07 0.0000000000000000e+00  1.5799610506190787e-01 -5.7011765827405707e-03 0.0000000000000000e+00  1.5800197818307674e-01 -1.1412254369104908e-02 0.0000000000000000e+00  1.6679783611278703e-01 1.1421713423202785e-02 0.0000000000000000e+00  1.6679464117562037e-01 5.7104216927715929e-03 0.0000000000000000e+00  1.6679214002485673e-01 2.3976101999126022e-06 0.0000000000000000e+00  1.6679352420141219e-01 -5.7048799784566624e-03 0.0000000000000000e+00  1.6679554567901975e-01 -1.1416550363260185e-02 0.0000000000000000e+00  </DataArray> 
</PointData> 
</Piece>
</UnstructuredGrid>
</VTKFile>