<?xml version="1.0"?>
<VTKFile type="UnstructuredGrid"  version="0.1"  >
<UnstructuredGrid>
<Piece  NumberOfPoints="135" NumberOfCells="208">
<Points>
<DataArray  type="Float64"  NumberOfComponents="3"  format="ascii">-0.05 0 0  -0.025 0 0  0 0 0  0.02500000000000001 0 0  0.05 0 0  -0.05 0.03846153846153846 0  -0.025 0.03846153846153846 0  0 0.03846153846153846 0  0.02500000000000001 0.03846153846153846 0  0.05 0.03846153846153846 0  -0.05 0.07692307692307693 0  -0.025 0.07692307692307693 0  0 0.07692307692307693 0  0.02500000000000001 0.07692307692307693 0  0.05 0.07692307692307693 0  -0.05 0.1153846153846154 0  -0.025 0.1153846153846154 0  0 0.1153846153846154 0  0.02500000000000001 0.1153846153846154 0  0.05 0.1153846153846154 0  -0.05 0.1538461538461539 0  -0.025 0.1538461538461539 0  0 0.1538461538461539 0  0.02500000000000001 0.1538461538461539 0  0.05 0.1538461538461539 0  -0.05 0.1923076923076923 0  -0.025 0.1923076923076923 0  0 0.1923076923076923 0  0.02500000000000001 0.1923076923076923 0  0.05 0.1923076923076923 0  -0.05 0.2307692307692308 0  -0.025 0.2307692307692308 0  0 0.2307692307692308 0  0.02500000000000001 0.2307692307692308 0  0.05 0.2307692307692308 0  -0.05 0.2692307692307692 0  -0.025 0.2692307692307692 0  0 0.2692307692307692 0  0.02500000000000001 0.2692307692307692 0  0.05 0.2692307692307692 0  -0.05 0.3076923076923077 0  -0.025 0.3076923076923077 0  0 0.3076923076923077 0  0.02500000000000001 0.3076923076923077 0  0.05 0.3076923076923077 0  -0.05 0.3461538461538461 0  -0.025 0.3461538461538461 0  0 0.3461538461538461 0  0.02500000000000001 0.3461538461538461 0  0.05 0.3461538461538461 0  -0.05 0.3846153846153846 0  -0.025 0.3846153846153846 0  0 0.3846153846153846 0  0.02500000000000001 0.3846153846153846 0  0.05 0.3846153846153846 0  -0.05 0.4230769230769231 0  -0.025 0.4230769230769231 0  0 0.4230769230769231 0  0.02500000000000001 0.4230769230769231 0  0.05 0.4230769230769231 0  -0.05 0.4615384615384616 0  -0.025 0.4615384615384616 0  0 0.4615384615384616 0  0.02500000000000001 0.4615384615384616 0  0.05 0.4615384615384616 0  -0.05 0.5 0  -0.025 0.5 0  0 0.5 0  0.02500000000000001 0.5 0  0.05 0.5 0  -0.05 0.5384615384615384 0  -0.025 0.5384615384615384 0  0 0.5384615384615384 0  0.02500000000000001 0.5384615384615384 0  0.05 0.5384615384615384 0  -0.05 0.5769230769230769 0  -0.025 0.5769230769230769 0  0 0.5769230769230769 0  0.02500000000000001 0.5769230769230769 0  0.05 0.5769230769230769 0  -0.05 0.6153846153846154 0  -0.025 0.6153846153846154 0  0 0.6153846153846154 0  0.02500000000000001 0.6153846153846154 0  0.05 0.6153846153846154 0  -0.05 0.6538461538461539 0  -0.025 0.6538461538461539 0  0 0.6538461538461539 0  0.02500000000000001 0.6538461538461539 0  0.05 0.6538461538461539 0  -0.05 0.6923076923076923 0  -0.025 0.6923076923076923 0  0 0.6923076923076923 0  0.02500000000000001 0.6923076923076923 0  0.05 0.6923076923076923 0  -0.05 0.7307692307692307 0  -0.025 0.7307692307692307 0  0 0.7307692307692307 0  0.02500000000000001 0.7307692307692307 0  0.05 0.7307692307692307 0  -0.05 0.7692307692307693 0  -0.025 0.7692307692307693 0  0 0.7692307692307693 0  0.02500000000000001 0.7692307692307693 0  0.05 0.7692307692307693 0  -0.05 0.8076923076923077 0  -0.025 0.8076923076923077 0  0 0.8076923076923077 0  0.02500000000000001 0.8076923076923077 0  0.05 0.8076923076923077 0  -0.05 0.8461538461538461 0  -0.025 0.8461538461538461 0  0 0.8461538461538461 0  0.02500000000000001 0.8461538461538461 0  0.05 0.8461538461538461 0  -0.05 0.8846153846153846 0  -0.025 0.8846153846153846 0  0 0.8846153846153846 0  0.02500000000000001 0.8846153846153846 0  0.05 0.8846153846153846 0  -0.05 0.9230769230769231 0  -0.025 0.9230769230769231 0  0 0.9230769230769231 0  0.02500000000000001 0.9230769230769231 0  0.05 0.9230769230769231 0  -0.05 0.9615384615384616 0  -0.025 0.9615384615384616 0  0 0.9615384615384616 0  0.02500000000000001 0.9615384615384616 0  0.05 0.9615384615384616 0  -0.05 1 0  -0.025 1 0  0 1 0  0.02500000000000001 1 0  0.05 1 0  </DataArray>
</Points>
<Cells>
<DataArray  type="UInt32"  Name="connectivity"  format="ascii">0 1 6  0 5 6  1 2 7  1 6 7  2 3 8  2 7 8  3 4 9  3 8 9  5 6 11  5 10 11  6 7 12  6 11 12  7 8 13  7 12 13  8 9 14  8 13 14  10 11 16  10 15 16  11 12 17  11 16 17  12 13 18  12 17 18  13 14 19  13 18 19  15 16 21  15 20 21  16 17 22  16 21 22  17 18 23  17 22 23  18 19 24  18 23 24  20 21 26  20 25 26  21 22 27  21 26 27  22 23 28  22 27 28  23 24 29  23 28 29  25 26 31  25 30 31  26 27 32  26 31 32  27 28 33  27 32 33  28 29 34  28 33 34  30 31 36  30 35 36  31 32 37  31 36 37  32 33 38  32 37 38  33 34 39  33 38 39  35 36 41  35 40 41  36 37 42  36 41 42  37 38 43  37 42 43  38 39 44  38 43 44  40 41 46  40 45 46  41 42 47  41 46 47  42 43 48  42 47 48  43 44 49  43 48 49  45 46 51  45 50 51  46 47 52  46 51 52  47 48 53  47 52 53  48 49 54  48 53 54  50 51 56  50 55 56  51 52 57  51 56 57  52 53 58  52 57 58  53 54 59  53 58 59  55 56 61  55 60 61  56 57 62  56 61 62  57 58 63  57 62 63  58 59 64  58 63 64  60 61 66  60 65 66  61 62 67  61 66 67  62 63 68  62 67 68  63 64 69  63 68 69  65 66 71  65 70 71  66 67 72  66 71 72  67 68 73  67 72 73  68 69 74  68 73 74  70 71 76  70 75 76  71 72 77  71 76 77  72 73 78  72 77 78  73 74 79  73 78 79  75 76 81  75 80 81  76 77 82  76 81 82  77 78 83  77 82 83  78 79 84  78 83 84  80 81 86  80 85 86  81 82 87  81 86 87  82 83 88  82 87 88  83 84 89  83 88 89  85 86 91  85 90 91  86 87 92  86 91 92  87 88 93  87 92 93  88 89 94  88 93 94  90 91 96  90 95 96  91 92 97  91 96 97  92 93 98  92 97 98  93 94 99  93 98 99  95 96 101  95 100 101  96 97 102  96 101 102  97 98 103  97 102 103  98 99 104  98 103 104  100 101 106  100 105 106  101 102 107  101 106 107  102 103 108  102 107 108  103 104 109  103 108 109  105 106 111  105 110 111  106 107 112  106 111 112  107 108 113  107 112 113  108 109 114  108 113 114  110 111 116  110 115 116  111 112 117  111 116 117  112 113 118  112 117 118  113 114 119  113 118 119  115 116 121  115 120 121  116 117 122  116 121 122  117 118 123  117 122 123  118 119 124  118 123 124  120 121 126  120 125 126  121 122 127  121 126 127  122 123 128  122 127 128  123 124 129  123 128 129  125 126 131  125 130 131  126 127 132  126 131 132  127 128 133  127 132 133  128 129 134  128 133 134  </DataArray>
<DataArray  type="UInt32"  Name="offsets"  format="ascii">3 6 9 12 15 18 21 24 27 30 33 36 39 42 45 48 51 54 57 60 63 66 69 72 75 78 81 84 87 90 93 96 99 102 105 108 111 114 117 120 123 126 129 132 135 138 141 144 147 150 153 156 159 162 165 168 171 174 177 180 183 186 189 192 195 198 201 204 207 210 213 216 219 222 225 228 231 234 237 240 243 246 249 252 255 258 261 264 267 270 273 276 279 282 285 288 291 294 297 300 303 306 309 312 315 318 321 324 327 330 333 336 339 342 345 348 351 354 357 360 363 366 369 372 375 378 381 384 387 390 393 396 399 402 405 408 411 414 417 420 423 426 429 432 435 438 441 444 447 450 453 456 459 462 465 468 471 474 477 480 483 486 489 492 495 498 501 504 507 510 513 516 519 522 525 528 531 534 537 540 543 546 549 552 555 558 561 564 567 570 573 576 579 582 585 588 591 594 597 600 603 606 609 612 615 618 621 624 </DataArray>
<DataArray  type="UInt8"  Name="types"  format="ascii">5 5 5 5 5 5 5 5 5 5 5 5 5 5 5 5 5 5 5 5 5 5 5 5 5 5 5 5 5 5 5 5 5 5 5 5 5 5 5 5 5 5 5 5 5 5 5 5 5 5 5 5 5 5 5 5 5 5 5 5 5 5 5 5 5 5 5 5 5 5 5 5 5 5 5 5 5 5 5 5 5 5 5 5 5 5 5 5 5 5 5 5 5 5 5 5 5 5 5 5 5 5 5 5 5 5 5 5 5 5 5 5 5 5 5 5 5 5 5 5 5 5 5 5 5 5 5 5 5 5 5 5 5 5 5 5 5 5 5 5 5 5 5 5 5 5 5 5 5 5 5 5 5 5 5 5 5 5 5 5 5 5 5 5 5 5 5 5 5 5 5 5 5 5 5 5 5 5 5 5 5 5 5 5 5 5 5 5 5 5 5 5 5 5 5 5 5 5 5 5 5 5 5 5 5 5 5 5 </DataArray>
</Cells>
<PointData  Vectors="Displacement"> 
<DataArray  type="Float64"  Name="Displacement"  NumberOfComponents="3" format="ascii">-4.4836831760097354e-16 6.8810762392079999e-18 0.0000000000000000e+00  0.0000000000000000e+00 0.0000000000000000e+00 0.0000000000000000e+00  0.0000000000000000e+00 0.0000000000000000e+00 0.0000000000000000e+00  -5.6736116600128291e-17 1.3705122294253685e-18 0.0000000000000000e+00  1.7020834980038490e-16 -4.1115366882761056e-18 0.0000000000000000e+00  5.0336297359442322e-04 7.6433805017510348e-04 0.0000000000000000e+00  3.4253096145804774e-04 3.7041475504957848e-04 0.0000000000000000e+00  2.8227069496961175e-04 1.1111337942294822e-05 0.0000000000000000e+00  3.3011099611715897e-04 -3.4417890713178630e-04 0.0000000000000000e+00  4.8853040523542945e-04 -7.4527580100643728e-04 0.0000000000000000e+00  1.4069361404042348e-03 1.4899462610613776e-03 0.0000000000000000e+00  1.2566812905977346e-03 7.4352625454197744e-04 0.0000000000000000e+00  1.2044438975509289e-03 2.1582241498490938e-05 0.0000000000000000e+00  1.2511637589280025e-03 -6.9971692041897809e-04 0.0000000000000000e+00  1.3954684171509301e-03 -1.4448474002650179e-03 0.0000000000000000e+00  2.8468171914526877e-03 2.1751979086431015e-03 0.0000000000000000e+00  2.7063330085180673e-03 1.0920248082714986e-03 0.0000000000000000e+00  2.6572839830871571e-03 3.2299087629472482e-05 0.0000000000000000e+00  2.6991794777677766e-03 -1.0272922914973425e-03 0.0000000000000000e+00  2.8341183502943023e-03 -2.1096409403915284e-03 0.0000000000000000e+00  4.7879008698025506e-03 2.8151281250084897e-03 0.0000000000000000e+00  4.6576126505694536e-03 1.4164922223024632e-03 0.0000000000000000e+00  4.6128133405010218e-03 4.2779096176290685e-05 0.0000000000000000e+00  4.6519218573630727e-03 -1.3312555489427540e-03 0.0000000000000000e+00  4.7767829037379294e-03 -2.7299373521684745e-03 0.0000000000000000e+00  7.1973932695141339e-03 3.4059987911224414e-03 0.0000000000000000e+00  7.0786099863544309e-03 1.7157161597534251e-03 0.0000000000000000e+00  7.0372952073637952e-03 5.2153904903293661e-05 0.0000000000000000e+00  7.0730437868098276e-03 -1.6111930546339216e-03 0.0000000000000000e+00  7.1869642441546068e-03 -3.3002870266621459e-03 0.0000000000000000e+00  1.0039289059741923e-02 3.9454528821790342e-03 0.0000000000000000e+00  9.9296422144361535e-03 1.9906919628292895e-03 0.0000000000000000e+00  9.8910748929234675e-03 6.2651561371060091e-05 0.0000000000000000e+00  9.9228975212027181e-03 -1.8645812180940978e-03 0.0000000000000000e+00  1.0026138866940237e-02 -3.8188496946076696e-03 0.0000000000000000e+00  1.3262480492865871e-02 4.4323483994575521e-03 0.0000000000000000e+00  1.3164944026283753e-02 2.2399233679002996e-03 0.0000000000000000e+00  1.3130873841310130e-02 7.3642884430095442e-05 0.0000000000000000e+00  1.3159779209452743e-02 -2.0928645403529987e-03 0.0000000000000000e+00  1.3252371101549192e-02 -4.2848105140156348e-03 0.0000000000000000e+00  1.6835685316464837e-02 4.8713442993084709e-03 0.0000000000000000e+00  1.6746410282919073e-02 2.4647195889213268e-03 0.0000000000000000e+00  1.6715146151341821e-02 8.2927342798057126e-05 0.0000000000000000e+00  1.6740552262953526e-02 -2.2976838375566846e-03 0.0000000000000000e+00  1.6823844926789337e-02 -4.7022360049110328e-03 0.0000000000000000e+00  2.0715139816219905e-02 5.2630378126686146e-03 0.0000000000000000e+00  2.0636526219750859e-02 2.6660390291206033e-03 0.0000000000000000e+00  2.0607706696347063e-02 9.3098415901299940e-05 0.0000000000000000e+00  2.0628735721130456e-02 -2.4794118091176062e-03 0.0000000000000000e+00  2.0701767498162695e-02 -5.0744978114736407e-03 0.0000000000000000e+00  2.4869457439009469e-02 5.6079896220171130e-03 0.0000000000000000e+00  2.4799831541318252e-02 2.8448581883746328e-03 0.0000000000000000e+00  2.4774116853431668e-02 1.0370248633525407e-04 0.0000000000000000e+00  2.4792618898683585e-02 -2.6380476054488188e-03 0.0000000000000000e+00  2.4856924507016522e-02 -5.4027369454528532e-03 0.0000000000000000e+00  2.9264308666414520e-02 5.9115534786761915e-03 0.0000000000000000e+00  2.9203183296114089e-02 3.0010302157952033e-03 0.0000000000000000e+00  2.9181564258384467e-02 1.1269942161352251e-04 0.0000000000000000e+00  2.9198027794429943e-02 -2.7763423483706329e-03 0.0000000000000000e+00  2.9253749301670427e-02 -5.6869466241847499e-03 0.0000000000000000e+00  3.3867082282069971e-02 6.1731961016023833e-03 0.0000000000000000e+00  3.3815412961959203e-02 3.1364968073415650e-03 0.0000000000000000e+00  3.3796419056841547e-02 1.2115656202694648e-04 0.0000000000000000e+00  3.3810024832638473e-02 -2.8945895504839617e-03 0.0000000000000000e+00  3.3857346671270099e-02 -5.9311038429546116e-03 0.0000000000000000e+00  3.8650193943355074e-02 6.3960280822908328e-03 0.0000000000000000e+00  3.8604617965537380e-02 3.2528654624043988e-03 0.0000000000000000e+00  3.8587958458764726e-02 1.2945973350325511e-04 0.0000000000000000e+00  3.8599155024090337e-02 -2.9942417467863774e-03 0.0000000000000000e+00  3.8639228883479149e-02 -6.1375256447048334e-03 0.0000000000000000e+00  4.3576892983554508e-02 6.5813910252653287e-03 0.0000000000000000e+00  4.3541281872733102e-02 3.3494413635888048e-03 0.0000000000000000e+00  4.3528066370884091e-02 1.3650967867603883e-04 0.0000000000000000e+00  4.3536916518024014e-02 -3.0760892538265472e-03 0.0000000000000000e+00  4.3568767204510334e-02 -6.3072243374311951e-03 0.0000000000000000e+00  4.8630248444004501e-02 6.7282336695075502e-03 0.0000000000000000e+00  4.8601216194030156e-02 3.4265678043411867e-03 0.0000000000000000e+00  4.8589597531144439e-02 1.4337313625367886e-04 0.0000000000000000e+00  4.8595180461236967e-02 -3.1397726269353958e-03 0.0000000000000000e+00  4.8620063360682204e-02 -6.4405144457412239e-03 0.0000000000000000e+00  5.3771687392304153e-02 6.8377411556422288e-03 0.0000000000000000e+00  5.3750260639642833e-02 3.4855374445384693e-03 0.0000000000000000e+00  5.3741542688370926e-02 1.5045686399315012e-04 0.0000000000000000e+00  5.3745459504622450e-02 -3.1855180341230434e-03 0.0000000000000000e+00  5.3762767226767059e-02 -6.5384439943561457e-03 0.0000000000000000e+00  5.8975349826331867e-02 6.9142263449370510e-03 0.0000000000000000e+00  5.8960780218060067e-02 3.5282185140796791e-03 0.0000000000000000e+00  5.8954872904979881e-02 1.5633743974406919e-04 0.0000000000000000e+00  5.8957234922640392e-02 -3.2163760840322308e-03 0.0000000000000000e+00  5.8968725707405974e-02 -6.6030424386855410e-03 0.0000000000000000e+00  6.4219514898906024e-02 6.9643483963427689e-03 0.0000000000000000e+00  6.4208645975859666e-02 3.5570949039368995e-03 0.0000000000000000e+00  6.4204054532751867e-02 1.6139645093099441e-04 0.0000000000000000e+00  6.4205232716446903e-02 -3.2340516879377974e-03 0.0000000000000000e+00  6.4211930884478907e-02 -6.6401350362233179e-03 0.0000000000000000e+00  6.9477110102200840e-02 6.9911534013845922e-03 0.0000000000000000e+00  6.9471775639190839e-02 3.5755984916124631e-03 0.0000000000000000e+00  6.9468674913318318e-02 1.6685636771588078e-04 0.0000000000000000e+00  6.9468291332067958e-02 -3.2419670017309718e-03 0.0000000000000000e+00  6.9471175424898071e-02 -6.6576474971806639e-03 0.0000000000000000e+00  7.4743760678348564e-02 7.0053081013817884e-03 0.0000000000000000e+00  7.4738962189557626e-02 3.5859058961245699e-03 0.0000000000000000e+00  7.4736782521543213e-02 1.7167254890322208e-04 0.0000000000000000e+00  7.4736109660981168e-02 -3.2433223774925575e-03 0.0000000000000000e+00  7.4737443905739206e-02 -6.6625328456879317e-03 0.0000000000000000e+00  8.0006695425904967e-02 7.0119500046765060e-03 0.0000000000000000e+00  8.0004264423529925e-02 3.5922246206004597e-03 0.0000000000000000e+00  8.0002801107022362e-02 1.7544171937672551e-04 0.0000000000000000e+00  8.0001997063296276e-02 -3.2418825125621600e-03 0.0000000000000000e+00  8.0001954387091345e-02 -6.6607559422393135e-03 0.0000000000000000e+00  8.5269288956310627e-02 7.0148524257700705e-03 0.0000000000000000e+00  8.5266473138945947e-02 3.5966224600196108e-03 0.0000000000000000e+00  8.5264824071876424e-02 1.7942192693475614e-04 0.0000000000000000e+00  8.5263301583400078e-02 -3.2385840291396738e-03 0.0000000000000000e+00  8.5263394344178081e-02 -6.6566207484859826e-03 0.0000000000000000e+00  9.0525973372144866e-02 7.0183953895246957e-03 0.0000000000000000e+00  9.0522852595283976e-02 3.6009978700982052e-03 0.0000000000000000e+00  9.0521604248641654e-02 1.8319451786742925e-04 0.0000000000000000e+00  9.0521117317988245e-02 -3.2353983650767002e-03 0.0000000000000000e+00  9.0521542610619191e-02 -6.6534442825930068e-03 0.0000000000000000e+00  9.5781189499103928e-02 7.0232997928089081e-03 0.0000000000000000e+00  9.5779469392421102e-02 3.6043434051477139e-03 0.0000000000000000e+00  9.5779406698158154e-02 1.8600834343023229e-04 0.0000000000000000e+00  9.5778538170710525e-02 -3.2333850778282869e-03 0.0000000000000000e+00  9.5778642163084737e-02 -6.6520122131240797e-03 0.0000000000000000e+00  1.0104579541150872e-01 7.0287614364400531e-03 0.0000000000000000e+00  1.0104178693549000e-01 3.6075053131575806e-03 0.0000000000000000e+00  1.0103996674996896e-01 1.8857221120271398e-04 0.0000000000000000e+00  1.0103924911420736e-01 -3.2314559512671573e-03 0.0000000000000000e+00  1.0104072054243032e-01 -6.6512110901807923e-03 0.0000000000000000e+00  1.0630531765283617e-01 7.0315625372442611e-03 0.0000000000000000e+00  1.0630388503936114e-01 3.6116049128399534e-03 0.0000000000000000e+00  1.0630340186199273e-01 1.9143398736288405e-04 0.0000000000000000e+00  1.0630297768140544e-01 -3.2293904879620991e-03 0.0000000000000000e+00  1.0630242834062759e-01 -6.6516378257797546e-03 0.0000000000000000e+00  </DataArray> 
</PointData> 
</Piece>
</UnstructuredGrid>
</VTKFile>