<?xml version="1.0"?>
<VTKFile type="UnstructuredGrid"  version="0.1"  >
<UnstructuredGrid>
<Piece  NumberOfPoints="135" NumberOfCells="208">
<Points>
<DataArray  type="Float64"  NumberOfComponents="3"  format="ascii">-0.05 0 0  -0.025 0 0  0 0 0  0.02500000000000001 0 0  0.05 0 0  -0.05 0.03846153846153846 0  -0.025 0.03846153846153846 0  0 0.03846153846153846 0  0.02500000000000001 0.03846153846153846 0  0.05 0.03846153846153846 0  -0.05 0.07692307692307693 0  -0.025 0.07692307692307693 0  0 0.07692307692307693 0  0.02500000000000001 0.07692307692307693 0  0.05 0.07692307692307693 0  -0.05 0.1153846153846154 0  -0.025 0.1153846153846154 0  0 0.1153846153846154 0  0.02500000000000001 0.1153846153846154 0  0.05 0.1153846153846154 0  -0.05 0.1538461538461539 0  -0.025 0.1538461538461539 0  0 0.1538461538461539 0  0.02500000000000001 0.1538461538461539 0  0.05 0.1538461538461539 0  -0.05 0.1923076923076923 0  -0.025 0.1923076923076923 0  0 0.1923076923076923 0  0.02500000000000001 0.1923076923076923 0  0.05 0.1923076923076923 0  -0.05 0.2307692307692308 0  -0.025 0.2307692307692308 0  0 0.2307692307692308 0  0.02500000000000001 0.2307692307692308 0  0.05 0.2307692307692308 0  -0.05 0.2692307692307692 0  -0.025 0.2692307692307692 0  0 0.2692307692307692 0  0.02500000000000001 0.2692307692307692 0  0.05 0.2692307692307692 0  -0.05 0.3076923076923077 0  -0.025 0.3076923076923077 0  0 0.3076923076923077 0  0.02500000000000001 0.3076923076923077 0  0.05 0.3076923076923077 0  -0.05 0.3461538461538461 0  -0.025 0.3461538461538461 0  0 0.3461538461538461 0  0.02500000000000001 0.3461538461538461 0  0.05 0.3461538461538461 0  -0.05 0.3846153846153846 0  -0.025 0.3846153846153846 0  0 0.3846153846153846 0  0.02500000000000001 0.3846153846153846 0  0.05 0.3846153846153846 0  -0.05 0.4230769230769231 0  -0.025 0.4230769230769231 0  0 0.4230769230769231 0  0.02500000000000001 0.4230769230769231 0  0.05 0.4230769230769231 0  -0.05 0.4615384615384616 0  -0.025 0.4615384615384616 0  0 0.4615384615384616 0  0.02500000000000001 0.4615384615384616 0  0.05 0.4615384615384616 0  -0.05 0.5 0  -0.025 0.5 0  0 0.5 0  0.02500000000000001 0.5 0  0.05 0.5 0  -0.05 0.5384615384615384 0  -0.025 0.5384615384615384 0  0 0.5384615384615384 0  0.02500000000000001 0.5384615384615384 0  0.05 0.5384615384615384 0  -0.05 0.5769230769230769 0  -0.025 0.5769230769230769 0  0 0.5769230769230769 0  0.02500000000000001 0.5769230769230769 0  0.05 0.5769230769230769 0  -0.05 0.6153846153846154 0  -0.025 0.6153846153846154 0  0 0.6153846153846154 0  0.02500000000000001 0.6153846153846154 0  0.05 0.6153846153846154 0  -0.05 0.6538461538461539 0  -0.025 0.6538461538461539 0  0 0.6538461538461539 0  0.02500000000000001 0.6538461538461539 0  0.05 0.6538461538461539 0  -0.05 0.6923076923076923 0  -0.025 0.6923076923076923 0  0 0.6923076923076923 0  0.02500000000000001 0.6923076923076923 0  0.05 0.6923076923076923 0  -0.05 0.7307692307692307 0  -0.025 0.7307692307692307 0  0 0.7307692307692307 0  0.02500000000000001 0.7307692307692307 0  0.05 0.7307692307692307 0  -0.05 0.7692307692307693 0  -0.025 0.7692307692307693 0  0 0.7692307692307693 0  0.02500000000000001 0.7692307692307693 0  0.05 0.7692307692307693 0  -0.05 0.8076923076923077 0  -0.025 0.8076923076923077 0  0 0.8076923076923077 0  0.02500000000000001 0.8076923076923077 0  0.05 0.8076923076923077 0  -0.05 0.8461538461538461 0  -0.025 0.8461538461538461 0  0 0.8461538461538461 0  0.02500000000000001 0.8461538461538461 0  0.05 0.8461538461538461 0  -0.05 0.8846153846153846 0  -0.025 0.8846153846153846 0  0 0.8846153846153846 0  0.02500000000000001 0.8846153846153846 0  0.05 0.8846153846153846 0  -0.05 0.9230769230769231 0  -0.025 0.9230769230769231 0  0 0.9230769230769231 0  0.02500000000000001 0.9230769230769231 0  0.05 0.9230769230769231 0  -0.05 0.9615384615384616 0  -0.025 0.9615384615384616 0  0 0.9615384615384616 0  0.02500000000000001 0.9615384615384616 0  0.05 0.9615384615384616 0  -0.05 1 0  -0.025 1 0  0 1 0  0.02500000000000001 1 0  0.05 1 0  </DataArray>
</Points>
<Cells>
<DataArray  type="UInt32"  Name="connectivity"  format="ascii">0 1 6  0 5 6  1 2 7  1 6 7  2 3 8  2 7 8  3 4 9  3 8 9  5 6 11  5 10 11  6 7 12  6 11 12  7 8 13  7 12 13  8 9 14  8 13 14  10 11 16  10 15 16  11 12 17  11 16 17  12 13 18  12 17 18  13 14 19  13 18 19  15 16 21  15 20 21  16 17 22  16 21 22  17 18 23  17 22 23  18 19 24  18 23 24  20 21 26  20 25 26  21 22 27  21 26 27  22 23 28  22 27 28  23 24 29  23 28 29  25 26 31  25 30 31  26 27 32  26 31 32  27 28 33  27 32 33  28 29 34  28 33 34  30 31 36  30 35 36  31 32 37  31 36 37  32 33 38  32 37 38  33 34 39  33 38 39  35 36 41  35 40 41  36 37 42  36 41 42  37 38 43  37 42 43  38 39 44  38 43 44  40 41 46  40 45 46  41 42 47  41 46 47  42 43 48  42 47 48  43 44 49  43 48 49  45 46 51  45 50 51  46 47 52  46 51 52  47 48 53  47 52 53  48 49 54  48 53 54  50 51 56  50 55 56  51 52 57  51 56 57  52 53 58  52 57 58  53 54 59  53 58 59  55 56 61  55 60 61  56 57 62  56 61 62  57 58 63  57 62 63  58 59 64  58 63 64  60 61 66  60 65 66  61 62 67  61 66 67  62 63 68  62 67 68  63 64 69  63 68 69  65 66 71  65 70 71  66 67 72  66 71 72  67 68 73  67 72 73  68 69 74  68 73 74  70 71 76  70 75 76  71 72 77  71 76 77  72 73 78  72 77 78  73 74 79  73 78 79  75 76 81  75 80 81  76 77 82  76 81 82  77 78 83  77 82 83  78 79 84  78 83 84  80 81 86  80 85 86  81 82 87  81 86 87  82 83 88  82 87 88  83 84 89  83 88 89  85 86 91  85 90 91  86 87 92  86 91 92  87 88 93  87 92 93  88 89 94  88 93 94  90 91 96  90 95 96  91 92 97  91 96 97  92 93 98  92 97 98  93 94 99  93 98 99  95 96 101  95 100 101  96 97 102  96 101 102  97 98 103  97 102 103  98 99 104  98 103 104  100 101 106  100 105 106  101 102 107  101 106 107  102 103 108  102 107 108  103 104 109  103 108 109  105 106 111  105 110 111  106 107 112  106 111 112  107 108 113  107 112 113  108 109 114  108 113 114  110 111 116  110 115 116  111 112 117  111 116 117  112 113 118  112 117 118  113 114 119  113 118 119  115 116 121  115 120 121  116 117 122  116 121 122  117 118 123  117 122 123  118 119 124  118 123 124  120 121 126  120 125 126  121 122 127  121 126 127  122 123 128  122 127 128  123 124 129  123 128 129  125 126 131  125 130 131  126 127 132  126 131 132  127 128 133  127 132 133  128 129 134  128 133 134  </DataArray>
<DataArray  type="UInt32"  Name="offsets"  format="ascii">3 6 9 12 15 18 21 24 27 30 33 36 39 42 45 48 51 54 57 60 63 66 69 72 75 78 81 84 87 90 93 96 99 102 105 108 111 114 117 120 123 126 129 132 135 138 141 144 147 150 153 156 159 162 165 168 171 174 177 180 183 186 189 192 195 198 201 204 207 210 213 216 219 222 225 228 231 234 237 240 243 246 249 252 255 258 261 264 267 270 273 276 279 282 285 288 291 294 297 300 303 306 309 312 315 318 321 324 327 330 333 336 339 342 345 348 351 354 357 360 363 366 369 372 375 378 381 384 387 390 393 396 399 402 405 408 411 414 417 420 423 426 429 432 435 438 441 444 447 450 453 456 459 462 465 468 471 474 477 480 483 486 489 492 495 498 501 504 507 510 513 516 519 522 525 528 531 534 537 540 543 546 549 552 555 558 561 564 567 570 573 576 579 582 585 588 591 594 597 600 603 606 609 612 615 618 621 624 </DataArray>
<DataArray  type="UInt8"  Name="types"  format="ascii">5 5 5 5 5 5 5 5 5 5 5 5 5 5 5 5 5 5 5 5 5 5 5 5 5 5 5 5 5 5 5 5 5 5 5 5 5 5 5 5 5 5 5 5 5 5 5 5 5 5 5 5 5 5 5 5 5 5 5 5 5 5 5 5 5 5 5 5 5 5 5 5 5 5 5 5 5 5 5 5 5 5 5 5 5 5 5 5 5 5 5 5 5 5 5 5 5 5 5 5 5 5 5 5 5 5 5 5 5 5 5 5 5 5 5 5 5 5 5 5 5 5 5 5 5 5 5 5 5 5 5 5 5 5 5 5 5 5 5 5 5 5 5 5 5 5 5 5 5 5 5 5 5 5 5 5 5 5 5 5 5 5 5 5 5 5 5 5 5 5 5 5 5 5 5 5 5 5 5 5 5 5 5 5 5 5 5 5 5 5 5 5 5 5 5 5 5 5 5 5 5 5 5 5 5 5 5 5 </DataArray>
</Cells>
<PointData  Vectors="Displacement"> 
<DataArray  type="Float64"  Name="Displacement"  NumberOfComponents="3" format="ascii">-4.6864379726050830e-16 9.1602081961315848e-18 0.0000000000000000e+00  0.0000000000000000e+00 0.0000000000000000e+00 0.0000000000000000e+00  0.0000000000000000e+00 0.0000000000000000e+00 0.0000000000000000e+00  -5.8789241334558546e-17 1.6499180435902140e-18 0.0000000000000000e+00  1.7636772400367564e-16 -4.9497541307706422e-18 0.0000000000000000e+00  7.3185503539658270e-04 1.0852573182211652e-03 0.0000000000000000e+00  5.0573793738291340e-04 5.1410135369157884e-04 0.0000000000000000e+00  4.2209682363421959e-04 -3.0795468131175281e-06 0.0000000000000000e+00  4.9404031996793404e-04 -5.1665406307544479e-04 0.0000000000000000e+00  7.2674613483964716e-04 -1.1036186252094348e-03 0.0000000000000000e+00  2.0441108504552835e-03 2.1039433197635386e-03 0.0000000000000000e+00  1.8364887308220616e-03 1.0281549806358430e-03 0.0000000000000000e+00  1.7678840260439178e-03 -8.3779665417469710e-06 0.0000000000000000e+00  1.8398159048574445e-03 -1.0473528914562793e-03 0.0000000000000000e+00  2.0499351341761239e-03 -2.1284346358869202e-03 0.0000000000000000e+00  4.1208748027575393e-03 3.0544869992153939e-03 0.0000000000000000e+00  3.9303920916162714e-03 1.4998917191356236e-03 0.0000000000000000e+00  3.8685941680242082e-03 -1.5937526215568139e-05 0.0000000000000000e+00  3.9355977133551578e-03 -1.5325912388648511e-03 0.0000000000000000e+00  4.1295804408825612e-03 -3.0880212405852928e-03 0.0000000000000000e+00  6.9029317359771501e-03 3.9307339133865405e-03 0.0000000000000000e+00  6.7266901834794049e-03 1.9358292802930241e-03 0.0000000000000000e+00  6.6685536359747371e-03 -2.2872863473277323e-05 0.0000000000000000e+00  6.7296296774337011e-03 -1.9811171842345444e-03 0.0000000000000000e+00  6.9088865309028628e-03 -3.9752505179261894e-03 0.0000000000000000e+00  1.0331233570368074e-02 4.7389939155841245e-03 0.0000000000000000e+00  1.0169842232304804e-02 2.3380091207387114e-03 0.0000000000000000e+00  1.0116508290680143e-02 -2.8251067322430194e-05 0.0000000000000000e+00  1.0171880237602496e-02 -2.3947030170773792e-03 0.0000000000000000e+00  1.0336686480780616e-02 -4.7959539352106905e-03 0.0000000000000000e+00  1.4360024290447427e-02 5.4803712834506045e-03 0.0000000000000000e+00  1.4211458932231127e-02 2.7066757593291781e-03 0.0000000000000000e+00  1.4163339366311796e-02 -3.3645034585708050e-05 0.0000000000000000e+00  1.4215134223468462e-02 -2.7744589858852160e-03 0.0000000000000000e+00  1.4366794699755756e-02 -5.5490743139337325e-03 0.0000000000000000e+00  1.8933817191013596e-02 6.1570216365457809e-03 0.0000000000000000e+00  1.8799778432145198e-02 3.0425892056404279e-03 0.0000000000000000e+00  1.8755601190169970e-02 -3.9150602628934123e-05 0.0000000000000000e+00  1.8801649681548994e-02 -3.1214498948589743e-03 0.0000000000000000e+00  1.8938825369309735e-02 -6.2346361087151940e-03 0.0000000000000000e+00  2.4005312263139504e-02 6.7693296871192982e-03 0.0000000000000000e+00  2.3882667640710047e-02 3.3487141668807111e-03 0.0000000000000000e+00  2.3841957270372437e-02 -4.2917025628876858e-05 0.0000000000000000e+00  2.3883808428611403e-02 -3.4349209869292204e-03 0.0000000000000000e+00  2.4008243665225922e-02 -6.8570818154338230e-03 0.0000000000000000e+00  2.9518737080344578e-02 7.3253808565802957e-03 0.0000000000000000e+00  2.9407656246043353e-02 3.6267771638337294e-03 0.0000000000000000e+00  2.9371288726410139e-02 -4.6048396790279158e-05 0.0000000000000000e+00  2.9410388847943409e-02 -3.7198304183741720e-03 0.0000000000000000e+00  2.9523757351559071e-02 -7.4194168913636026e-03 0.0000000000000000e+00  3.5438702043246492e-02 7.8332149233728537e-03 0.0000000000000000e+00  3.5336975975039292e-02 3.8800732029978897e-03 0.0000000000000000e+00  3.5303652433988024e-02 -4.9647967784728977e-05 0.0000000000000000e+00  3.5338721041591331e-02 -3.9794023325779217e-03 0.0000000000000000e+00  3.5441629752152287e-02 -7.9311297365949052e-03 0.0000000000000000e+00  4.1730945369782300e-02 8.2976080246127560e-03 0.0000000000000000e+00  4.1636841933420439e-02 4.1124696419140927e-03 0.0000000000000000e+00  4.1605344620646190e-02 -5.1679381938385620e-05 0.0000000000000000e+00  4.1636399340929144e-02 -4.2153786331919742e-03 0.0000000000000000e+00  4.1730460082085329e-02 -8.4005774347732723e-03 0.0000000000000000e+00  4.8357851177591518e-02 8.7232542126485513e-03 0.0000000000000000e+00  4.8272962877511962e-02 4.3255662340935669e-03 0.0000000000000000e+00  4.8244831733778679e-02 -5.2917557347976617e-05 0.0000000000000000e+00  4.8273978884560746e-02 -4.4316383881996190e-03 0.0000000000000000e+00  4.8360164547118820e-02 -8.8295038556927483e-03 0.0000000000000000e+00  5.5299874001313969e-02 9.1128265549876609e-03 0.0000000000000000e+00  5.5220506755759714e-02 4.5205877017917189e-03 0.0000000000000000e+00  5.5194410223024383e-02 -5.4501081253247761e-05 0.0000000000000000e+00  5.5221371414246961e-02 -4.6292363703445156e-03 0.0000000000000000e+00  5.5300313055090651e-02 -9.2214137146986435e-03 0.0000000000000000e+00  6.2523608273253997e-02 9.4717821403900188e-03 0.0000000000000000e+00  6.2451527675921069e-02 4.7004323529216876e-03 0.0000000000000000e+00  6.2427271276730201e-02 -5.5249556298245654e-05 0.0000000000000000e+00  6.2450813503647458e-02 -4.8106837904153222e-03 0.0000000000000000e+00  6.2522830740170843e-02 -9.5805663170765269e-03 0.0000000000000000e+00  7.0012927186379387e-02 9.8028508372652624e-03 0.0000000000000000e+00  6.9945789162359315e-02 4.8662046726696377e-03 0.0000000000000000e+00  6.9923745714417077e-02 -5.4994204728447976e-05 0.0000000000000000e+00  6.9945642003330269e-02 -4.9755711878926552e-03 0.0000000000000000e+00  7.0011929136917603e-02 -9.9126466428766848e-03 0.0000000000000000e+00  7.7745518426608401e-02 1.0107116880175099e-02 0.0000000000000000e+00  7.7685034659593477e-02 5.0171781801447461e-03 0.0000000000000000e+00  7.7665196900586736e-02 -5.5414266565625721e-05 0.0000000000000000e+00  7.7685382989966023e-02 -5.1269755953992167e-03 0.0000000000000000e+00  7.7745745763755994e-02 -1.0215506753891846e-02 0.0000000000000000e+00  8.5706149680199628e-02 1.0380239334301563e-02 0.0000000000000000e+00  8.5652845492702676e-02 5.1525250421211406e-03 0.0000000000000000e+00  8.5634841565691122e-02 -5.5115341940380297e-05 0.0000000000000000e+00  8.5651648986391576e-02 -5.2626093629230038e-03 0.0000000000000000e+00  8.5704640642088201e-02 -1.0488843729974341e-02 0.0000000000000000e+00  9.3869572931037024e-02 1.0616141365891198e-02 0.0000000000000000e+00  9.3823905367389410e-02 5.2704003718277081e-03 0.0000000000000000e+00  9.3808580743173151e-02 -5.4077474080627414e-05 0.0000000000000000e+00  9.3822686894799764e-02 -5.3781386493921600e-03 0.0000000000000000e+00  9.3867256406178740e-02 -1.0724760747737675e-02 0.0000000000000000e+00  1.0219725076462118e-01 1.0809282951153607e-02 0.0000000000000000e+00  1.0216225683586060e-01 5.3660814533287148e-03 0.0000000000000000e+00  1.0215089852279373e-01 -5.3670828703510395e-05 0.0000000000000000e+00  1.0216267213229764e-01 -5.4727261690489075e-03 0.0000000000000000e+00  1.0219778079105953e-01 -1.0913856491345537e-02 0.0000000000000000e+00  1.1065908756430186e-01 1.0956147113670130e-02 0.0000000000000000e+00  1.1063091803892569e-01 5.4411660934653048e-03 0.0000000000000000e+00  1.1062039811652652e-01 -5.2510687364036136e-05 0.0000000000000000e+00  1.1062838595179392e-01 -5.5446910060404789e-03 0.0000000000000000e+00  1.1065462861694272e-01 -1.1057456994302542e-02 0.0000000000000000e+00  1.1920419369557016e-01 1.1061027773754679e-02 0.0000000000000000e+00  1.1918509379748894e-01 5.4968733582447735e-03 0.0000000000000000e+00  1.1917773985991452e-01 -4.9990754150463568e-05 0.0000000000000000e+00  1.1918322386552252e-01 -5.5963313299041079e-03 0.0000000000000000e+00  1.1920148072157993e-01 -1.1160308174131063e-02 0.0000000000000000e+00  1.2781256626210027e-01 1.1133554825581055e-02 0.0000000000000000e+00  1.2779888662515912e-01 5.5345385979624117e-03 0.0000000000000000e+00  1.2779412453645939e-01 -4.9021393330106512e-05 0.0000000000000000e+00  1.2779864718697612e-01 -5.6319910356247907e-03 0.0000000000000000e+00  1.2781122423441249e-01 -1.1228969118851795e-02 0.0000000000000000e+00  1.3645898324006323e-01 1.1177755264630624e-02 0.0000000000000000e+00  1.3645004465976229e-01 5.5593552091677875e-03 0.0000000000000000e+00  1.3644563037529123e-01 -4.7620798326500631e-05 0.0000000000000000e+00  1.3644692795947891e-01 -5.6531987627265927e-03 0.0000000000000000e+00  1.3645350717042387e-01 -1.1269386474001129e-02 0.0000000000000000e+00  1.4511939986959008e-01 1.1199147638643554e-02 0.0000000000000000e+00  1.4511496100978155e-01 5.5734704473556140e-03 0.0000000000000000e+00  1.4511210368569744e-01 -4.4467861085944349e-05 0.0000000000000000e+00  1.4511235266353864e-01 -5.6626503901648188e-03 0.0000000000000000e+00  1.4511525271740908e-01 -1.1288437376917740e-02 0.0000000000000000e+00  1.5378383143527954e-01 1.1207392303615121e-02 0.0000000000000000e+00  1.5377941462232972e-01 5.5800204740454181e-03 0.0000000000000000e+00  1.5377796801104648e-01 -4.3057533748701905e-05 0.0000000000000000e+00  1.5377872883507879e-01 -5.6657712273811478e-03 0.0000000000000000e+00  1.5378125080901162e-01 -1.1291272578233674e-02 0.0000000000000000e+00  1.6244126171884868e-01 1.1211050409401742e-02 0.0000000000000000e+00  1.6243936781322735e-01 5.5845098704764206e-03 0.0000000000000000e+00  1.6243697961251863e-01 -4.0770490692889320e-05 0.0000000000000000e+00  1.6243589378684131e-01 -5.6652554039935922e-03 0.0000000000000000e+00  1.6243543865468002e-01 -1.1289715048816993e-02 0.0000000000000000e+00  </DataArray> 
</PointData> 
</Piece>
</UnstructuredGrid>
</VTKFile>