<?xml version="1.0"?>
<VTKFile type="UnstructuredGrid"  version="0.1"  >
<UnstructuredGrid>
<Piece  NumberOfPoints="135" NumberOfCells="208">
<Points>
<DataArray  type="Float64"  NumberOfComponents="3"  format="ascii">-0.05 0 0  -0.025 0 0  0 0 0  0.02500000000000001 0 0  0.05 0 0  -0.05 0.03846153846153846 0  -0.025 0.03846153846153846 0  0 0.03846153846153846 0  0.02500000000000001 0.03846153846153846 0  0.05 0.03846153846153846 0  -0.05 0.07692307692307693 0  -0.025 0.07692307692307693 0  0 0.07692307692307693 0  0.02500000000000001 0.07692307692307693 0  0.05 0.07692307692307693 0  -0.05 0.1153846153846154 0  -0.025 0.1153846153846154 0  0 0.1153846153846154 0  0.02500000000000001 0.1153846153846154 0  0.05 0.1153846153846154 0  -0.05 0.1538461538461539 0  -0.025 0.1538461538461539 0  0 0.1538461538461539 0  0.02500000000000001 0.1538461538461539 0  0.05 0.1538461538461539 0  -0.05 0.1923076923076923 0  -0.025 0.1923076923076923 0  0 0.1923076923076923 0  0.02500000000000001 0.1923076923076923 0  0.05 0.1923076923076923 0  -0.05 0.2307692307692308 0  -0.025 0.2307692307692308 0  0 0.2307692307692308 0  0.02500000000000001 0.2307692307692308 0  0.05 0.2307692307692308 0  -0.05 0.2692307692307692 0  -0.025 0.2692307692307692 0  0 0.2692307692307692 0  0.02500000000000001 0.2692307692307692 0  0.05 0.2692307692307692 0  -0.05 0.3076923076923077 0  -0.025 0.3076923076923077 0  0 0.3076923076923077 0  0.02500000000000001 0.3076923076923077 0  0.05 0.3076923076923077 0  -0.05 0.3461538461538461 0  -0.025 0.3461538461538461 0  0 0.3461538461538461 0  0.02500000000000001 0.3461538461538461 0  0.05 0.3461538461538461 0  -0.05 0.3846153846153846 0  -0.025 0.3846153846153846 0  0 0.3846153846153846 0  0.02500000000000001 0.3846153846153846 0  0.05 0.3846153846153846 0  -0.05 0.4230769230769231 0  -0.025 0.4230769230769231 0  0 0.4230769230769231 0  0.02500000000000001 0.4230769230769231 0  0.05 0.4230769230769231 0  -0.05 0.4615384615384616 0  -0.025 0.4615384615384616 0  0 0.4615384615384616 0  0.02500000000000001 0.4615384615384616 0  0.05 0.4615384615384616 0  -0.05 0.5 0  -0.025 0.5 0  0 0.5 0  0.02500000000000001 0.5 0  0.05 0.5 0  -0.05 0.5384615384615384 0  -0.025 0.5384615384615384 0  0 0.5384615384615384 0  0.02500000000000001 0.5384615384615384 0  0.05 0.5384615384615384 0  -0.05 0.5769230769230769 0  -0.025 0.5769230769230769 0  0 0.5769230769230769 0  0.02500000000000001 0.5769230769230769 0  0.05 0.5769230769230769 0  -0.05 0.6153846153846154 0  -0.025 0.6153846153846154 0  0 0.6153846153846154 0  0.02500000000000001 0.6153846153846154 0  0.05 0.6153846153846154 0  -0.05 0.6538461538461539 0  -0.025 0.6538461538461539 0  0 0.6538461538461539 0  0.02500000000000001 0.6538461538461539 0  0.05 0.6538461538461539 0  -0.05 0.6923076923076923 0  -0.025 0.6923076923076923 0  0 0.6923076923076923 0  0.02500000000000001 0.6923076923076923 0  0.05 0.6923076923076923 0  -0.05 0.7307692307692307 0  -0.025 0.7307692307692307 0  0 0.7307692307692307 0  0.02500000000000001 0.7307692307692307 0  0.05 0.7307692307692307 0  -0.05 0.7692307692307693 0  -0.025 0.7692307692307693 0  0 0.7692307692307693 0  0.02500000000000001 0.7692307692307693 0  0.05 0.7692307692307693 0  -0.05 0.8076923076923077 0  -0.025 0.8076923076923077 0  0 0.8076923076923077 0  0.02500000000000001 0.8076923076923077 0  0.05 0.8076923076923077 0  -0.05 0.8461538461538461 0  -0.025 0.8461538461538461 0  0 0.8461538461538461 0  0.02500000000000001 0.8461538461538461 0  0.05 0.8461538461538461 0  -0.05 0.8846153846153846 0  -0.025 0.8846153846153846 0  0 0.8846153846153846 0  0.02500000000000001 0.8846153846153846 0  0.05 0.8846153846153846 0  -0.05 0.9230769230769231 0  -0.025 0.9230769230769231 0  0 0.9230769230769231 0  0.02500000000000001 0.9230769230769231 0  0.05 0.9230769230769231 0  -0.05 0.9615384615384616 0  -0.025 0.9615384615384616 0  0 0.9615384615384616 0  0.02500000000000001 0.9615384615384616 0  0.05 0.9615384615384616 0  -0.05 1 0  -0.025 1 0  0 1 0  0.02500000000000001 1 0  0.05 1 0  </DataArray>
</Points>
<Cells>
<DataArray  type="UInt32"  Name="connectivity"  format="ascii">0 1 6  0 5 6  1 2 7  1 6 7  2 3 8  2 7 8  3 4 9  3 8 9  5 6 11  5 10 11  6 7 12  6 11 12  7 8 13  7 12 13  8 9 14  8 13 14  10 11 16  10 15 16  11 12 17  11 16 17  12 13 18  12 17 18  13 14 19  13 18 19  15 16 21  15 20 21  16 17 22  16 21 22  17 18 23  17 22 23  18 19 24  18 23 24  20 21 26  20 25 26  21 22 27  21 26 27  22 23 28  22 27 28  23 24 29  23 28 29  25 26 31  25 30 31  26 27 32  26 31 32  27 28 33  27 32 33  28 29 34  28 33 34  30 31 36  30 35 36  31 32 37  31 36 37  32 33 38  32 37 38  33 34 39  33 38 39  35 36 41  35 40 41  36 37 42  36 41 42  37 38 43  37 42 43  38 39 44  38 43 44  40 41 46  40 45 46  41 42 47  41 46 47  42 43 48  42 47 48  43 44 49  43 48 49  45 46 51  45 50 51  46 47 52  46 51 52  47 48 53  47 52 53  48 49 54  48 53 54  50 51 56  50 55 56  51 52 57  51 56 57  52 53 58  52 57 58  53 54 59  53 58 59  55 56 61  55 60 61  56 57 62  56 61 62  57 58 63  57 62 63  58 59 64  58 63 64  60 61 66  60 65 66  61 62 67  61 66 67  62 63 68  62 67 68  63 64 69  63 68 69  65 66 71  65 70 71  66 67 72  66 71 72  67 68 73  67 72 73  68 69 74  68 73 74  70 71 76  70 75 76  71 72 77  71 76 77  72 73 78  72 77 78  73 74 79  73 78 79  75 76 81  75 80 81  76 77 82  76 81 82  77 78 83  77 82 83  78 79 84  78 83 84  80 81 86  80 85 86  81 82 87  81 86 87  82 83 88  82 87 88  83 84 89  83 88 89  85 86 91  85 90 91  86 87 92  86 91 92  87 88 93  87 92 93  88 89 94  88 93 94  90 91 96  90 95 96  91 92 97  91 96 97  92 93 98  92 97 98  93 94 99  93 98 99  95 96 101  95 100 101  96 97 102  96 101 102  97 98 103  97 102 103  98 99 104  98 103 104  100 101 106  100 105 106  101 102 107  101 106 107  102 103 108  102 107 108  103 104 109  103 108 109  105 106 111  105 110 111  106 107 112  106 111 112  107 108 113  107 112 113  108 109 114  108 113 114  110 111 116  110 115 116  111 112 117  111 116 117  112 113 118  112 117 118  113 114 119  113 118 119  115 116 121  115 120 121  116 117 122  116 121 122  117 118 123  117 122 123  118 119 124  118 123 124  120 121 126  120 125 126  121 122 127  121 126 127  122 123 128  122 127 128  123 124 129  123 128 129  125 126 131  125 130 131  126 127 132  126 131 132  127 128 133  127 132 133  128 129 134  128 133 134  </DataArray>
<DataArray  type="UInt32"  Name="offsets"  format="ascii">3 6 9 12 15 18 21 24 27 30 33 36 39 42 45 48 51 54 57 60 63 66 69 72 75 78 81 84 87 90 93 96 99 102 105 108 111 114 117 120 123 126 129 132 135 138 141 144 147 150 153 156 159 162 165 168 171 174 177 180 183 186 189 192 195 198 201 204 207 210 213 216 219 222 225 228 231 234 237 240 243 246 249 252 255 258 261 264 267 270 273 276 279 282 285 288 291 294 297 300 303 306 309 312 315 318 321 324 327 330 333 336 339 342 345 348 351 354 357 360 363 366 369 372 375 378 381 384 387 390 393 396 399 402 405 408 411 414 417 420 423 426 429 432 435 438 441 444 447 450 453 456 459 462 465 468 471 474 477 480 483 486 489 492 495 498 501 504 507 510 513 516 519 522 525 528 531 534 537 540 543 546 549 552 555 558 561 564 567 570 573 576 579 582 585 588 591 594 597 600 603 606 609 612 615 618 621 624 </DataArray>
<DataArray  type="UInt8"  Name="types"  format="ascii">5 5 5 5 5 5 5 5 5 5 5 5 5 5 5 5 5 5 5 5 5 5 5 5 5 5 5 5 5 5 5 5 5 5 5 5 5 5 5 5 5 5 5 5 5 5 5 5 5 5 5 5 5 5 5 5 5 5 5 5 5 5 5 5 5 5 5 5 5 5 5 5 5 5 5 5 5 5 5 5 5 5 5 5 5 5 5 5 5 5 5 5 5 5 5 5 5 5 5 5 5 5 5 5 5 5 5 5 5 5 5 5 5 5 5 5 5 5 5 5 5 5 5 5 5 5 5 5 5 5 5 5 5 5 5 5 5 5 5 5 5 5 5 5 5 5 5 5 5 5 5 5 5 5 5 5 5 5 5 5 5 5 5 5 5 5 5 5 5 5 5 5 5 5 5 5 5 5 5 5 5 5 5 5 5 5 5 5 5 5 5 5 5 5 5 5 5 5 5 5 5 5 5 5 5 5 5 5 </DataArray>
</Cells>
<PointData  Vectors="Displacement"> 
<DataArray  type="Float64"  Name="Displacement"  NumberOfComponents="3" format="ascii">-4.7267239884605566e-16 9.4690778015017838e-18 0.0000000000000000e+00  0.0000000000000000e+00 0.0000000000000000e+00 0.0000000000000000e+00  0.0000000000000000e+00 0.0000000000000000e+00 0.0000000000000000e+00  -5.8348437089952356e-17 1.5710533385810148e-18 0.0000000000000000e+00  1.7504531126985709e-16 -4.7131600157430444e-18 0.0000000000000000e+00  7.1098859231482215e-04 1.0464116962257423e-03 0.0000000000000000e+00  4.9506038120789909e-04 4.9399846681358100e-04 0.0000000000000000e+00  4.1671751222193478e-04 -2.3460898733142631e-06 0.0000000000000000e+00  4.8672032641945858e-04 -4.9429665352209763e-04 0.0000000000000000e+00  7.1029179450543534e-04 -1.0614000282616670e-03 0.0000000000000000e+00  1.9835936331150249e-03 2.0196485563500595e-03 0.0000000000000000e+00  1.7871761650156449e-03 9.8354352254604281e-04 0.0000000000000000e+00  1.7226224122097477e-03 -7.3506023761941354e-06 0.0000000000000000e+00  1.7912183622643002e-03 -9.9876035857621257e-04 0.0000000000000000e+00  1.9903113594739764e-03 -2.0360971050809424e-03 0.0000000000000000e+00  3.9836365204234461e-03 2.9117340433744555e-03 0.0000000000000000e+00  3.8064302082185765e-03 1.4275028245409585e-03 0.0000000000000000e+00  3.7476236285310647e-03 -1.2670890841733726e-05 0.0000000000000000e+00  3.8086408633908140e-03 -1.4530022390388164e-03 0.0000000000000000e+00  3.9892460709488155e-03 -2.9373674903271220e-03 0.0000000000000000e+00  6.6368330926211087e-03 3.7159677577748213e-03 0.0000000000000000e+00  6.4774832325465949e-03 1.8283581950664606e-03 0.0000000000000000e+00  6.4254965979860324e-03 -1.7857596299111991e-05 0.0000000000000000e+00  6.4812311846861185e-03 -1.8642935880549612e-03 0.0000000000000000e+00  6.6441589059594774e-03 -3.7532832537792928e-03 0.0000000000000000e+00  9.8765209671604938e-03 4.4393083852402445e-03 0.0000000000000000e+00  9.7347874647393320e-03 2.1871532260892305e-03 0.0000000000000000e+00  9.6887083589220421e-03 -2.4057251678183719e-05 0.0000000000000000e+00  9.7389635368441436e-03 -2.2345574291322595e-03 0.0000000000000000e+00  9.8848949257386073e-03 -4.4853720118705554e-03 0.0000000000000000e+00  1.3646659154165526e-02 5.0833386673071477e-03 0.0000000000000000e+00  1.3519271720664678e-02 2.5075884016332981e-03 0.0000000000000000e+00  1.3477299496148112e-02 -2.9016445017391506e-05 0.0000000000000000e+00  1.3520892360993826e-02 -2.5652199482451492e-03 0.0000000000000000e+00  1.3651239912227608e-02 -5.1399586991905727e-03 0.0000000000000000e+00  1.7880116514995822e-02 5.6530804025695450e-03 0.0000000000000000e+00  1.7768920375441807e-02 2.7910021726138476e-03 0.0000000000000000e+00  1.7732454766947358e-02 -3.3167813005035740e-05 0.0000000000000000e+00  1.7771408139535417e-02 -2.8573105027198922e-03 0.0000000000000000e+00  1.7885519981343845e-02 -5.7194704850272275e-03 0.0000000000000000e+00  2.2524007795856386e-02 6.1501801239964215e-03 0.0000000000000000e+00  2.2426457103403928e-02 3.0391540926900449e-03 0.0000000000000000e+00  2.2394298731629111e-02 -3.8513381900075768e-05 0.0000000000000000e+00  2.2428941604448371e-02 -3.1146167914575485e-03 0.0000000000000000e+00  2.2529702953760108e-02 -6.2241364152752290e-03 0.0000000000000000e+00  2.7518899502969194e-02 6.5812385253480416e-03 0.0000000000000000e+00  2.7434176087112926e-02 3.2549699588966230e-03 0.0000000000000000e+00  2.7405551088041089e-02 -4.2030947350657958e-05 0.0000000000000000e+00  2.7434922104817586e-02 -3.3388573163780433e-03 0.0000000000000000e+00  2.7522004751134539e-02 -6.6638755098293694e-03 0.0000000000000000e+00  3.2814913497467339e-02 6.9562438532674411e-03 0.0000000000000000e+00  3.2740286666625762e-02 3.4441622104589781e-03 0.0000000000000000e+00  3.2715119303472859e-02 -4.5146169871544820e-05 0.0000000000000000e+00  3.2741258617447713e-02 -3.5343089343314992e-03 0.0000000000000000e+00  3.2817936224139747e-02 -7.0469654128273032e-03 0.0000000000000000e+00  3.8372474643158253e-02 7.2872687661139695e-03 0.0000000000000000e+00  3.8305555063759551e-02 3.6105823494466823e-03 0.0000000000000000e+00  3.8283770647937719e-02 -4.8822778485803891e-05 0.0000000000000000e+00  3.8307936383542004e-02 -3.7081422249623554e-03 0.0000000000000000e+00  3.8376748274128153e-02 -7.3849004308818534e-03 0.0000000000000000e+00  4.4163552041271169e-02 7.5864938862834691e-03 0.0000000000000000e+00  4.4103533784430618e-02 3.7600243374923598e-03 0.0000000000000000e+00  4.4083542060135358e-02 -5.2230602207474940e-05 0.0000000000000000e+00  4.4104597671394845e-02 -3.8647338770094069e-03 0.0000000000000000e+00  4.4166342853837907e-02 -7.6901136573589530e-03 0.0000000000000000e+00  5.0174763002328850e-02 7.8613636850107613e-03 0.0000000000000000e+00  5.0117710585716548e-02 3.8977390012161993e-03 0.0000000000000000e+00  5.0098747771312784e-02 -5.4679013603882197e-05 0.0000000000000000e+00  5.0117878346324050e-02 -4.0076381567621840e-03 0.0000000000000000e+00  5.0175485397689755e-02 -7.9726954198492649e-03 0.0000000000000000e+00  5.6387638337378837e-02 8.1178558583509790e-03 0.0000000000000000e+00  5.6337171084502057e-02 4.0234718499646931e-03 0.0000000000000000e+00  5.6321114547754063e-02 -5.7711439876333543e-05 0.0000000000000000e+00  5.6338896242350688e-02 -4.1400021971626441e-03 0.0000000000000000e+00  5.6391488296861428e-02 -8.2353999707710443e-03 0.0000000000000000e+00  6.2800052038549603e-02 8.3517481113113880e-03 0.0000000000000000e+00  6.2753110930534012e-02 4.1373955800955613e-03 0.0000000000000000e+00  6.2737770158357534e-02 -6.1653826703336485e-05 0.0000000000000000e+00  6.2754046125883145e-02 -4.2609129547490857e-03 0.0000000000000000e+00  6.2802033302609028e-02 -8.4748370364863303e-03 0.0000000000000000e+00  6.9385196038239824e-02 8.5571368580284780e-03 0.0000000000000000e+00  6.9345116009162946e-02 4.2387878057576212e-03 0.0000000000000000e+00  6.9331841426737498e-02 -6.3977990298718490e-05 0.0000000000000000e+00  6.9345163130819079e-02 -4.3675235189107250e-03 0.0000000000000000e+00  6.9386431039217072e-02 -8.6868477013717273e-03 0.0000000000000000e+00  7.6119603644077591e-02 8.7326398019308658e-03 0.0000000000000000e+00  7.6086266478547118e-02 4.3243039205033721e-03 0.0000000000000000e+00  7.6075987868658490e-02 -6.6753173282671242e-05 0.0000000000000000e+00  7.6088352376121354e-02 -4.4581113807712971e-03 0.0000000000000000e+00  7.6123274563502180e-02 -8.8666388346563089e-03 0.0000000000000000e+00  8.2980552850561218e-02 8.8756301726256592e-03 0.0000000000000000e+00  8.2952969343050298e-02 4.3950204415714985e-03 0.0000000000000000e+00  8.2943832301504358e-02 -6.9785702807110357e-05 0.0000000000000000e+00  8.2953759615947253e-02 -4.5343736161870965e-03 0.0000000000000000e+00  8.2982829230119168e-02 -9.0140886774685187e-03 0.0000000000000000e+00  8.9937434225776935e-02 8.9888105070063257e-03 0.0000000000000000e+00  8.9915937681631516e-02 4.4512922751440472e-03 0.0000000000000000e+00  8.9908316209325753e-02 -7.1563052054873872e-05 0.0000000000000000e+00  8.9915782023065036e-02 -4.5952729807827233e-03 0.0000000000000000e+00  8.9938307728393632e-02 -9.1332378836713139e-03 0.0000000000000000e+00  9.6969641013613980e-02 9.0765414460426720e-03 0.0000000000000000e+00  9.6952144187618369e-02 4.4957945984535792e-03 0.0000000000000000e+00  9.6947174776008518e-02 -7.3951891588951523e-05 0.0000000000000000e+00  9.6954348023182951e-02 -4.6438868516295514e-03 0.0000000000000000e+00  9.6972907179993559e-02 -9.2254927433461816e-03 0.0000000000000000e+00  1.0405669540060679e-01 9.1440437918204331e-03 0.0000000000000000e+00  1.0404462196712196e-01 4.5284465223036571e-03 0.0000000000000000e+00  1.0404099530062921e-01 -7.6086368538850455e-05 0.0000000000000000e+00  1.0404558825061182e-01 -4.6809880568741483e-03 0.0000000000000000e+00  1.0405850232464704e-01 -9.2949225916999223e-03 0.0000000000000000e+00  1.1119031344570433e-01 9.1934544184161127e-03 0.0000000000000000e+00  1.1118057205162415e-01 4.5534879413687288e-03 0.0000000000000000e+00  1.1117720651645627e-01 -7.6189887320536029e-05 0.0000000000000000e+00  1.1118012149398906e-01 -4.7062708963600142e-03 0.0000000000000000e+00  1.1118954092397360e-01 -9.3459852588761473e-03 0.0000000000000000e+00  1.1835197836906461e-01 9.2243258510295231e-03 0.0000000000000000e+00  1.1834634409030927e-01 4.5693686296315265e-03 0.0000000000000000e+00  1.1834520363889373e-01 -7.6208795885725542e-05 0.0000000000000000e+00  1.1834756653411396e-01 -4.7221970362465344e-03 0.0000000000000000e+00  1.1835331851657557e-01 -9.3773492966538960e-03 0.0000000000000000e+00  1.2552794538261317e-01 9.2398131203105440e-03 0.0000000000000000e+00  1.2552467384816646e-01 4.5776543228287841e-03 0.0000000000000000e+00  1.2552361438964044e-01 -7.6890847520410369e-05 0.0000000000000000e+00  1.2552522009064990e-01 -4.7308378494116737e-03 0.0000000000000000e+00  1.2552797134350202e-01 -9.3906587135308243e-03 0.0000000000000000e+00  1.3270772473401099e-01 9.2450244469861938e-03 0.0000000000000000e+00  1.3270374036110436e-01 4.5828568739232755e-03 0.0000000000000000e+00  1.3270178437108915e-01 -7.5621177051842534e-05 0.0000000000000000e+00  1.3270175682998062e-01 -4.7334122047007427e-03 0.0000000000000000e+00  1.3270423876744972e-01 -9.3931580752414558e-03 0.0000000000000000e+00  1.3987765736727020e-01 9.2471152951900427e-03 0.0000000000000000e+00  1.3987597205819596e-01 4.5870165438455929e-03 0.0000000000000000e+00  1.3987430518840968e-01 -7.2603760718215711e-05 0.0000000000000000e+00  1.3987428979474437e-01 -4.7321432616506485e-03 0.0000000000000000e+00  1.3987480792252263e-01 -9.3936733805562878e-03 0.0000000000000000e+00  </DataArray> 
</PointData> 
</Piece>
</UnstructuredGrid>
</VTKFile>