<?xml version="1.0"?>
<VTKFile type="UnstructuredGrid"  version="0.1"  >
<UnstructuredGrid>
<Piece  NumberOfPoints="135" NumberOfCells="208">
<Points>
<DataArray  type="Float64"  NumberOfComponents="3"  format="ascii">-0.05 0 0  -0.025 0 0  0 0 0  0.02500000000000001 0 0  0.05 0 0  -0.05 0.03846153846153846 0  -0.025 0.03846153846153846 0  0 0.03846153846153846 0  0.02500000000000001 0.03846153846153846 0  0.05 0.03846153846153846 0  -0.05 0.07692307692307693 0  -0.025 0.07692307692307693 0  0 0.07692307692307693 0  0.02500000000000001 0.07692307692307693 0  0.05 0.07692307692307693 0  -0.05 0.1153846153846154 0  -0.025 0.1153846153846154 0  0 0.1153846153846154 0  0.02500000000000001 0.1153846153846154 0  0.05 0.1153846153846154 0  -0.05 0.1538461538461539 0  -0.025 0.1538461538461539 0  0 0.1538461538461539 0  0.02500000000000001 0.1538461538461539 0  0.05 0.1538461538461539 0  -0.05 0.1923076923076923 0  -0.025 0.1923076923076923 0  0 0.1923076923076923 0  0.02500000000000001 0.1923076923076923 0  0.05 0.1923076923076923 0  -0.05 0.2307692307692308 0  -0.025 0.2307692307692308 0  0 0.2307692307692308 0  0.02500000000000001 0.2307692307692308 0  0.05 0.2307692307692308 0  -0.05 0.2692307692307692 0  -0.025 0.2692307692307692 0  0 0.2692307692307692 0  0.02500000000000001 0.2692307692307692 0  0.05 0.2692307692307692 0  -0.05 0.3076923076923077 0  -0.025 0.3076923076923077 0  0 0.3076923076923077 0  0.02500000000000001 0.3076923076923077 0  0.05 0.3076923076923077 0  -0.05 0.3461538461538461 0  -0.025 0.3461538461538461 0  0 0.3461538461538461 0  0.02500000000000001 0.3461538461538461 0  0.05 0.3461538461538461 0  -0.05 0.3846153846153846 0  -0.025 0.3846153846153846 0  0 0.3846153846153846 0  0.02500000000000001 0.3846153846153846 0  0.05 0.3846153846153846 0  -0.05 0.4230769230769231 0  -0.025 0.4230769230769231 0  0 0.4230769230769231 0  0.02500000000000001 0.4230769230769231 0  0.05 0.4230769230769231 0  -0.05 0.4615384615384616 0  -0.025 0.4615384615384616 0  0 0.4615384615384616 0  0.02500000000000001 0.4615384615384616 0  0.05 0.4615384615384616 0  -0.05 0.5 0  -0.025 0.5 0  0 0.5 0  0.02500000000000001 0.5 0  0.05 0.5 0  -0.05 0.5384615384615384 0  -0.025 0.5384615384615384 0  0 0.5384615384615384 0  0.02500000000000001 0.5384615384615384 0  0.05 0.5384615384615384 0  -0.05 0.5769230769230769 0  -0.025 0.5769230769230769 0  0 0.5769230769230769 0  0.02500000000000001 0.5769230769230769 0  0.05 0.5769230769230769 0  -0.05 0.6153846153846154 0  -0.025 0.6153846153846154 0  0 0.6153846153846154 0  0.02500000000000001 0.6153846153846154 0  0.05 0.6153846153846154 0  -0.05 0.6538461538461539 0  -0.025 0.6538461538461539 0  0 0.6538461538461539 0  0.02500000000000001 0.6538461538461539 0  0.05 0.6538461538461539 0  -0.05 0.6923076923076923 0  -0.025 0.6923076923076923 0  0 0.6923076923076923 0  0.02500000000000001 0.6923076923076923 0  0.05 0.6923076923076923 0  -0.05 0.7307692307692307 0  -0.025 0.7307692307692307 0  0 0.7307692307692307 0  0.02500000000000001 0.7307692307692307 0  0.05 0.7307692307692307 0  -0.05 0.7692307692307693 0  -0.025 0.7692307692307693 0  0 0.7692307692307693 0  0.02500000000000001 0.7692307692307693 0  0.05 0.7692307692307693 0  -0.05 0.8076923076923077 0  -0.025 0.8076923076923077 0  0 0.8076923076923077 0  0.02500000000000001 0.8076923076923077 0  0.05 0.8076923076923077 0  -0.05 0.8461538461538461 0  -0.025 0.8461538461538461 0  0 0.8461538461538461 0  0.02500000000000001 0.8461538461538461 0  0.05 0.8461538461538461 0  -0.05 0.8846153846153846 0  -0.025 0.8846153846153846 0  0 0.8846153846153846 0  0.02500000000000001 0.8846153846153846 0  0.05 0.8846153846153846 0  -0.05 0.9230769230769231 0  -0.025 0.9230769230769231 0  0 0.9230769230769231 0  0.02500000000000001 0.9230769230769231 0  0.05 0.9230769230769231 0  -0.05 0.9615384615384616 0  -0.025 0.9615384615384616 0  0 0.9615384615384616 0  0.02500000000000001 0.9615384615384616 0  0.05 0.9615384615384616 0  -0.05 1 0  -0.025 1 0  0 1 0  0.02500000000000001 1 0  0.05 1 0  </DataArray>
</Points>
<Cells>
<DataArray  type="UInt32"  Name="connectivity"  format="ascii">0 1 6  0 5 6  1 2 7  1 6 7  2 3 8  2 7 8  3 4 9  3 8 9  5 6 11  5 10 11  6 7 12  6 11 12  7 8 13  7 12 13  8 9 14  8 13 14  10 11 16  10 15 16  11 12 17  11 16 17  12 13 18  12 17 18  13 14 19  13 18 19  15 16 21  15 20 21  16 17 22  16 21 22  17 18 23  17 22 23  18 19 24  18 23 24  20 21 26  20 25 26  21 22 27  21 26 27  22 23 28  22 27 28  23 24 29  23 28 29  25 26 31  25 30 31  26 27 32  26 31 32  27 28 33  27 32 33  28 29 34  28 33 34  30 31 36  30 35 36  31 32 37  31 36 37  32 33 38  32 37 38  33 34 39  33 38 39  35 36 41  35 40 41  36 37 42  36 41 42  37 38 43  37 42 43  38 39 44  38 43 44  40 41 46  40 45 46  41 42 47  41 46 47  42 43 48  42 47 48  43 44 49  43 48 49  45 46 51  45 50 51  46 47 52  46 51 52  47 48 53  47 52 53  48 49 54  48 53 54  50 51 56  50 55 56  51 52 57  51 56 57  52 53 58  52 57 58  53 54 59  53 58 59  55 56 61  55 60 61  56 57 62  56 61 62  57 58 63  57 62 63  58 59 64  58 63 64  60 61 66  60 65 66  61 62 67  61 66 67  62 63 68  62 67 68  63 64 69  63 68 69  65 66 71  65 70 71  66 67 72  66 71 72  67 68 73  67 72 73  68 69 74  68 73 74  70 71 76  70 75 76  71 72 77  71 76 77  72 73 78  72 77 78  73 74 79  73 78 79  75 76 81  75 80 81  76 77 82  76 81 82  77 78 83  77 82 83  78 79 84  78 83 84  80 81 86  80 85 86  81 82 87  81 86 87  82 83 88  82 87 88  83 84 89  83 88 89  85 86 91  85 90 91  86 87 92  86 91 92  87 88 93  87 92 93  88 89 94  88 93 94  90 91 96  90 95 96  91 92 97  91 96 97  92 93 98  92 97 98  93 94 99  93 98 99  95 96 101  95 100 101  96 97 102  96 101 102  97 98 103  97 102 103  98 99 104  98 103 104  100 101 106  100 105 106  101 102 107  101 106 107  102 103 108  102 107 108  103 104 109  103 108 109  105 106 111  105 110 111  106 107 112  106 111 112  107 108 113  107 112 113  108 109 114  108 113 114  110 111 116  110 115 116  111 112 117  111 116 117  112 113 118  112 117 118  113 114 119  113 118 119  115 116 121  115 120 121  116 117 122  116 121 122  117 118 123  117 122 123  118 119 124  118 123 124  120 121 126  120 125 126  121 122 127  121 126 127  122 123 128  122 127 128  123 124 129  123 128 129  125 126 131  125 130 131  126 127 132  126 131 132  127 128 133  127 132 133  128 129 134  128 133 134  </DataArray>
<DataArray  type="UInt32"  Name="offsets"  format="ascii">3 6 9 12 15 18 21 24 27 30 33 36 39 42 45 48 51 54 57 60 63 66 69 72 75 78 81 84 87 90 93 96 99 102 105 108 111 114 117 120 123 126 129 132 135 138 141 144 147 150 153 156 159 162 165 168 171 174 177 180 183 186 189 192 195 198 201 204 207 210 213 216 219 222 225 228 231 234 237 240 243 246 249 252 255 258 261 264 267 270 273 276 279 282 285 288 291 294 297 300 303 306 309 312 315 318 321 324 327 330 333 336 339 342 345 348 351 354 357 360 363 366 369 372 375 378 381 384 387 390 393 396 399 402 405 408 411 414 417 420 423 426 429 432 435 438 441 444 447 450 453 456 459 462 465 468 471 474 477 480 483 486 489 492 495 498 501 504 507 510 513 516 519 522 525 528 531 534 537 540 543 546 549 552 555 558 561 564 567 570 573 576 579 582 585 588 591 594 597 600 603 606 609 612 615 618 621 624 </DataArray>
<DataArray  type="UInt8"  Name="types"  format="ascii">5 5 5 5 5 5 5 5 5 5 5 5 5 5 5 5 5 5 5 5 5 5 5 5 5 5 5 5 5 5 5 5 5 5 5 5 5 5 5 5 5 5 5 5 5 5 5 5 5 5 5 5 5 5 5 5 5 5 5 5 5 5 5 5 5 5 5 5 5 5 5 5 5 5 5 5 5 5 5 5 5 5 5 5 5 5 5 5 5 5 5 5 5 5 5 5 5 5 5 5 5 5 5 5 5 5 5 5 5 5 5 5 5 5 5 5 5 5 5 5 5 5 5 5 5 5 5 5 5 5 5 5 5 5 5 5 5 5 5 5 5 5 5 5 5 5 5 5 5 5 5 5 5 5 5 5 5 5 5 5 5 5 5 5 5 5 5 5 5 5 5 5 5 5 5 5 5 5 5 5 5 5 5 5 5 5 5 5 5 5 5 5 5 5 5 5 5 5 5 5 5 5 5 5 5 5 5 5 </DataArray>
</Cells>
<PointData  Vectors="Displacement"> 
<DataArray  type="Float64"  Name="Displacement"  NumberOfComponents="3" format="ascii">-4.6484300912819414e-16 9.8067839239553427e-18 0.0000000000000000e+00  0.0000000000000000e+00 0.0000000000000000e+00 0.0000000000000000e+00  0.0000000000000000e+00 0.0000000000000000e+00 0.0000000000000000e+00  -6.0718143537539758e-17 1.9688401104325106e-18 0.0000000000000000e+00  1.8215443061261927e-16 -5.9065203312975326e-18 0.0000000000000000e+00  8.1245381824168728e-04 1.2399330927518714e-03 0.0000000000000000e+00  5.5157233440616851e-04 5.9757277350382413e-04 0.0000000000000000e+00  4.5392738856542654e-04 8.3593774441979422e-06 0.0000000000000000e+00  5.3409742943402976e-04 -5.7570529148407519e-04 0.0000000000000000e+00  7.9632367633301177e-04 -1.2347383800279633e-03 0.0000000000000000e+00  2.2886413871384911e-03 2.4243472212569579e-03 0.0000000000000000e+00  2.0457712743830996e-03 1.2006474848743260e-03 0.0000000000000000e+00  1.9638245586255172e-03 1.5060160467318569e-05 0.0000000000000000e+00  2.0440354067797588e-03 -1.1722761926724397e-03 0.0000000000000000e+00  2.2838158414477151e-03 -2.3995818542188528e-03 0.0000000000000000e+00  4.6551877757142002e-03 3.5449547224611546e-03 0.0000000000000000e+00  4.4285242577328217e-03 1.7632067045045016e-03 0.0000000000000000e+00  4.3524300129470506e-03 2.0743730810386543e-05 0.0000000000000000e+00  4.4260286996085753e-03 -1.7225480536835289e-03 0.0000000000000000e+00  4.6492899490950630e-03 -3.5050221382121427e-03 0.0000000000000000e+00  7.8479482236272942e-03 4.5880454608200104e-03 0.0000000000000000e+00  7.6370275741999274e-03 2.2886444943212097e-03 0.0000000000000000e+00  7.5660009525585258e-03 2.6800719046920083e-05 0.0000000000000000e+00  7.6350274875230280e-03 -2.2354962055066469e-03 0.0000000000000000e+00  7.8439356623301437e-03 -4.5361316037123870e-03 0.0000000000000000e+00  1.1805579749376301e-02 5.5578102673842526e-03 0.0000000000000000e+00  1.1610536984745807e-02 2.7766516947974103e-03 0.0000000000000000e+00  1.1545335412467304e-02 3.2016990682404079e-05 0.0000000000000000e+00  1.1609146789573206e-02 -2.7125837100743467e-03 0.0000000000000000e+00  1.1802113141260452e-02 -5.4932358272340919e-03 0.0000000000000000e+00  1.6478097916185323e-02 6.4567698260034603e-03 0.0000000000000000e+00  1.6295702477536204e-02 3.2301274203985256e-03 0.0000000000000000e+00  1.6233719709608914e-02 3.7684375878135034e-05 0.0000000000000000e+00  1.6292741093518744e-02 -3.1547485795499941e-03 0.0000000000000000e+00  1.6472572564254748e-02 -6.3817129943603652e-03 0.0000000000000000e+00  2.1802236709090230e-02 7.2895443186358853e-03 0.0000000000000000e+00  2.1634956552844579e-02 3.6502487126938142e-03 0.0000000000000000e+00  2.1578969593479623e-02 4.3293254064486511e-05 0.0000000000000000e+00  2.1633558544398159e-02 -3.5641957086630471e-03 0.0000000000000000e+00  2.1799166093509736e-02 -7.2043816518069480e-03 0.0000000000000000e+00  2.7742273574773348e-02 8.0617079357839620e-03 0.0000000000000000e+00  2.7586144956008377e-02 4.0391302622729492e-03 0.0000000000000000e+00  2.7533767989804028e-02 4.8381262406941428e-05 0.0000000000000000e+00  2.7584509835795756e-02 -3.9424035837807483e-03 0.0000000000000000e+00  2.7737936386032915e-02 -7.9650931778842051e-03 0.0000000000000000e+00  3.4243749470365625e-02 8.7732067638551792e-03 0.0000000000000000e+00  3.4101083930319381e-02 4.3981584365942556e-03 0.0000000000000000e+00  3.4052892563211652e-02 5.3919186712997639e-05 0.0000000000000000e+00  3.4099019913334826e-02 -4.2903925360881180e-03 0.0000000000000000e+00  3.4239744674545880e-02 -8.6653593241612873e-03 0.0000000000000000e+00  4.1264756797640918e-02 9.4254256161348717e-03 0.0000000000000000e+00  4.1133847131036544e-02 4.7277743244701050e-03 0.0000000000000000e+00  4.1089743972824194e-02 5.9849292529670825e-05 0.0000000000000000e+00  4.1131714455143333e-02 -4.6082297498212105e-03 0.0000000000000000e+00  4.1259800516853261e-02 -9.3062531958086059e-03 0.0000000000000000e+00  4.8758416425853872e-02 1.0020509096062027e-02 0.0000000000000000e+00  4.8638538362935274e-02 5.0292810730997069e-03 0.0000000000000000e+00  4.8597721075855430e-02 6.5717894436470535e-05 0.0000000000000000e+00  4.8636279546365756e-02 -4.8980073899820478e-03 0.0000000000000000e+00  4.8753696787417242e-02 -9.8895739086431820e-03 0.0000000000000000e+00  5.6677009424916089e-02 1.0562046300817718e-02 0.0000000000000000e+00  5.6568672385055065e-02 5.3042591785556533e-03 0.0000000000000000e+00  5.6532107334968509e-02 7.1749544750885236e-05 0.0000000000000000e+00  5.6566731845024601e-02 -5.1610197516856167e-03 0.0000000000000000e+00  5.6672354662659449e-02 -1.0418897166623527e-02 0.0000000000000000e+00  6.4987132777909157e-02 1.1056431274908338e-02 0.0000000000000000e+00  6.4886183530640296e-02 5.5562380378897979e-03 0.0000000000000000e+00  6.4851673700546869e-02 7.8040948968066134e-05 0.0000000000000000e+00  6.4883562277844323e-02 -5.4001177111305315e-03 0.0000000000000000e+00  6.4980894129101754e-02 -1.0900390901501678e-02 0.0000000000000000e+00  7.3646606564412020e-02 1.1510637528186200e-02 0.0000000000000000e+00  7.3555555296690098e-02 5.7872777878999878e-03 0.0000000000000000e+00  7.3524608679202796e-02 8.4685097726298414e-05 0.0000000000000000e+00  7.3553001833879791e-02 -5.6180546547641499e-03 0.0000000000000000e+00  7.3641088336524149e-02 -1.1341241877679010e-02 0.0000000000000000e+00  8.2638520147198830e-02 1.1926641406739753e-02 0.0000000000000000e+00  8.2554016644690476e-02 5.9992245155324128e-03 0.0000000000000000e+00  8.2525060356055668e-02 9.1603079437567889e-05 0.0000000000000000e+00  8.2550969740615127e-02 -5.8161142510730580e-03 0.0000000000000000e+00  8.2631499986389328e-02 -1.1743894266750638e-02 0.0000000000000000e+00  9.1925953325897036e-02 1.2305892938446738e-02 0.0000000000000000e+00  9.1849845904733440e-02 6.1924600448361473e-03 0.0000000000000000e+00  9.1823772563882744e-02 9.8484670999763606e-05 0.0000000000000000e+00  9.1847102760758859e-02 -5.9958782920465359e-03 0.0000000000000000e+00  9.1920151273606587e-02 -1.2109635149547287e-02 0.0000000000000000e+00  1.0148769593505662e-01 1.2648648716835312e-02 0.0000000000000000e+00  1.0141955806481796e-01 6.3669487334398001e-03 0.0000000000000000e+00  1.0139646592367037e-01 1.0537837949745461e-04 0.0000000000000000e+00  1.0141707473350678e-01 -6.1564632905296759e-03 0.0000000000000000e+00  1.0148149400992734e-01 -1.2438422870900591e-02 0.0000000000000000e+00  1.1129418374492039e-01 1.2952983431767677e-02 0.0000000000000000e+00  1.1123306333477423e-01 6.5228324302785429e-03 0.0000000000000000e+00  1.1121190857932993e-01 1.1220598222427541e-04 0.0000000000000000e+00  1.1123015712185272e-01 -6.2984318855404909e-03 0.0000000000000000e+00  1.1128774471223886e-01 -1.2728491246033185e-02 0.0000000000000000e+00  1.2131150955797711e-01 1.3220026390628681e-02 0.0000000000000000e+00  1.2126005763522826e-01 6.6589252602298537e-03 0.0000000000000000e+00  1.2124274143338627e-01 1.1876351598713948e-04 0.0000000000000000e+00  1.2125790018556445e-01 -6.4215378820748521e-03 0.0000000000000000e+00  1.2130655493704236e-01 -1.2982927281585743e-02 0.0000000000000000e+00  1.3152313023333606e-01 1.3447631257230974e-02 0.0000000000000000e+00  1.3147858655159472e-01 6.7747603548534135e-03 0.0000000000000000e+00  1.3146315165937980e-01 1.2440343509111424e-04 0.0000000000000000e+00  1.3147624252150508e-01 -6.5257454687729401e-03 0.0000000000000000e+00  1.3151773166702896e-01 -1.3197862341283680e-02 0.0000000000000000e+00  1.4188452385423991e-01 1.3631037292079488e-02 0.0000000000000000e+00  1.4185027445149576e-01 6.8697372732265888e-03 0.0000000000000000e+00  1.4183809087557980e-01 1.3010714463475908e-04 0.0000000000000000e+00  1.4184760925065318e-01 -6.6094997849279339e-03 0.0000000000000000e+00  1.4187942813043108e-01 -1.3370582767076096e-02 0.0000000000000000e+00  1.5236712663351937e-01 1.3770925301712544e-02 0.0000000000000000e+00  1.5234130444826680e-01 6.9427107941223663e-03 0.0000000000000000e+00  1.5233260681049410e-01 1.3538840644296835e-04 0.0000000000000000e+00  1.5234003445946503e-01 -6.6717855057088432e-03 0.0000000000000000e+00  1.5236351230949383e-01 -1.3500332211860457e-02 0.0000000000000000e+00  1.6293381386804173e-01 1.3869122643997454e-02 0.0000000000000000e+00  1.6291612009908457e-01 6.9945948077442472e-03 0.0000000000000000e+00  1.6291004522524213e-01 1.3972259342575637e-04 0.0000000000000000e+00  1.6291543508126208e-01 -6.7149407995906289e-03 0.0000000000000000e+00  1.6293160043878385e-01 -1.3588235818267224e-02 0.0000000000000000e+00  1.7355153367536083e-01 1.3928117240404124e-02 0.0000000000000000e+00  1.7354180839647179e-01 7.0278077419364156e-03 0.0000000000000000e+00  1.7353821568264335e-01 1.4335025087391982e-04 0.0000000000000000e+00  1.7354078103542800e-01 -6.7403148723048194e-03 0.0000000000000000e+00  1.7354889477352095e-01 -1.3639017375316915e-02 0.0000000000000000e+00  1.8419258415586726e-01 1.3954484936528781e-02 0.0000000000000000e+00  1.8418599972596195e-01 7.0454116793415705e-03 0.0000000000000000e+00  1.8418312220136468e-01 1.4673223286160229e-04 0.0000000000000000e+00  1.8418467815276909e-01 -6.7512698867536157e-03 0.0000000000000000e+00  1.8418951287188931e-01 -1.3658262016688707e-02 0.0000000000000000e+00  1.9482316391514901e-01 1.3960520186821842e-02 0.0000000000000000e+00  1.9482018101524601e-01 7.0535692107180342e-03 0.0000000000000000e+00  1.9481806448297379e-01 1.5006741935925870e-04 0.0000000000000000e+00  1.9481836145652093e-01 -6.7534263603703159e-03 0.0000000000000000e+00  1.9481954288572156e-01 -1.3660040919008734e-02 0.0000000000000000e+00  </DataArray> 
</PointData> 
</Piece>
</UnstructuredGrid>
</VTKFile>